[Molden Format]
[Molpro variables]
_NUMVAR=  844.0000000000000    
_AVOGAD= 0.6022136736000000E+24
_BOLTZ= 0.1380658000000000E-22
_CLIGHT=  29979245800.00000    
_EV2006= 0.3674930886769165E-01
_EV= 0.3674932534394180E-01
_ENULL= 0.8854187817000000E-11
_KJOULE= 0.3808798324128737E-03
_KJOULE/MOL= 0.3808798324128737E-03
_CM= 0.4556335267302901E-05
_CM-1= 0.4556335267302901E-05
_DEB2SI= 0.3335641000000000E-29
_AMU2AU=  1822.888390000000    
_KCAL= 0.1593601117815568E-02
_KCAL/MOL= 0.1593601117815568E-02
_KELVIN2006= 0.3166828861084835E-05
_KELVIN= 0.3166814820820034E-05
_JOULE= 0.4359748200000000E-17
_HERTZ2006= 0.1519829850815779E-15
_HERTZ= 0.1519829846011223E-15
_HZ2006= 0.1519829850815779E-15
_HZ= 0.1519829846011223E-15
_JPCAL=  4.184000000000000    
_PLANCK= 0.6626075540000000E-33
_TOA2006= 0.5291772490000000    
_TOA= 0.5291772090000000    
_TOANG2006= 0.5291772490000000    
_TOANG= 0.5291772090000000    
_TORAD= 0.1745329251994330E-01
_TOCM=  219474.6306700000    
_TODEBYE=  2.541580000000000    
_TOEV2006=  27.21139610000000    
_TOE= 0.4803242000000000E-09
_TOEV=  27.21138390000000    
_TOHERTZ2006=  6579683899900000.    
_TOHERTZ=  6579683920700000.    
_TOHZ2006=  6579683899900000.    
_TOHZ=  6579683920700000.    
_TOK2006=  315773.3000000000    
_TOK=  315774.7000000000    
_TOKCAL=  627.5096000000000    
_TOKELVIN2006=  315773.3000000000    
_TOKELVIN=  315774.7000000000    
_TOKJ=  2625.500000000000    
_TOKJOULE=  2625.500000000000    
_TOKG= 0.1660565586000000E-26
_ANG2006=  1.889725988578923    
_ANG=  1.889726131421507    
_ANGSTROM2006=  1.889725988578923    
_ANGSTROM=  1.889726131421507    
_RPAREF=  0.000000000000000    
_RPADISS=  0.000000000000000    
_IGNORE_UNDEF=  2.000000000000000    
_STRICTCHECK=  0.000000000000000    
_SEW_ONEEL=  0.000000000000000    
_CPPDONE=FALSE
_DKROLL_DONE=  0.000000000000000    
_FOCKDONE=TRUE
_GRADONE=FALSE
_HESSDONE=FALSE
_INTDONE=TRUE
_SCFDONE=TRUE
_MODUL_BLOCK=FALSE
_MODUL_CUDA=FALSE
_MODUL_SLATER=FALSE
_MODUL_MRCC=FALSE
_MODUL_NBO6=FALSE
_MODUL_NECI=TRUE
_MODUL_AIMS=TRUE
_MRCC_EXEC=
_FITC_AO_SAVED=FALSE
_FITC_MO_SAVED=FALSE
_SHARED_FS=TRUE
_LSTYP=SEWARD
_INTYP=INTS
_GEOMTYP=ZMAT
_GRADTYP=ALASKA
_DIRECT=FALSE
_DKHO= -1.000000000000000    
_SYNCM=  0.000000000000000    
_BASIS=$BSET
_ZORIENT=  1.000000000000000    
_NELEC=  42.00000000000000    
!SPIN=  0.000000000000000    
_OPTCONV= 0.2343365902337766E-03
_QSDSTEP=  0.000000000000000    
_QSDIRC=  0.000000000000000    
_PROGRAM=OPTG
_CPUSTEP=  0.000000000000000    
_SYSSTEP=  0.000000000000000    
_WALLSTEP=  0.000000000000000    
!DFSCF=  0.000000000000000    
!SCSGRD=  0.000000000000000    
_BASINP=  610.0000000000000    
_CPUTOT=  17.62000000000000    
_CPUSORT= 0.8999999999999986E-01
_SYSSORT= 0.1999999999999996E-01
_WALLSORT= 0.1099999994039536    
_DFTEXFAC=  1.000000000000000    
_DMX=-0.5654505752517025E-09
_DMY=-0.5394477263997999E-05
_DMZ= 0.1837972670363117E-14
_DMX_SCF=-0.5654505752517025E-09
_DMY_SCF=-0.5394477263997999E-05
_DMZ_SCF= 0.1837972670363117E-14
_EHOMO=-0.3339510161842003    
_ELUMO= 0.1481137672082756    
_ENERGY= -230.6244749048094    
_ENUC=  204.6111292828881    
_GRADENERG= -230.6244748889756    
_GRADEXFAC=  9999.000000000000    
_GRADMETHOD=  1.000000000000000    
_NMRMETHOD=  0.000000000000000    
_VIRIAL=-0.3327924406897292E-03
!GRID_FREEZE= -1.000000000000000    
_ITERATIONS=  7.000000000000000    
_LASTNELEC=  42.00000000000000    
_LASTSPIN=  0.000000000000000    
_LASTSYM=  1.000000000000000    
_MPP_PROG=  0.000000000000000    
_NPROC_MPP=  1.000000000000000    
_NPROC_MPPX=  1.000000000000000    
_NPROC_SMP=  1.000000000000000    
_NUMSTEP=  0.000000000000000    
_OPTCONVMX= 0.1026142089487914E-03
_OPTCONVRMS= 0.7811219674459220E-05
_OPTGRAD= 0.4358533472515837E-03
_OPTGRADMX= 0.2803358883609785E-03
_OPTGRADRMS= 0.7957557001794156E-04
_OPTSTEP=  5.000000000000000    
_ORBITAL=  2100.200000000000    
_PI=  3.141592653589793    
_SEIG_MIN= 0.6546710793594218E-03
_SEWPROP=TRUE
_STATUS=  1.000000000000000    
_SYSTOT= 0.3000000000000000    
_VERSION=  2012001.000000000    
_WALLTOT=  17.92000000000000    
_DATE=23-Oct-15
_LASTORB=RHF
_MACHINE=Linux-3.2.0-92-generic/sce-chem-c01105(x86_64) 64 bit serial version
_OUTPUT=/home/s1267651/phd_mini_30Sept2015/ifm/molpro2/benzene_optg.xml
_PGROUP=C1
_TIME=15:55:21
_LIBMOL=/usr/local/molpro/molprop_2012_1_Linux_x86_64_i8/lib/
!VIBCNT=  0.000000000000000    
!RGHFCNT=  0.000000000000000    
!SURFREC=  0.000000000000000    
!POLYREC=  0.000000000000000    
!DIPREC=  0.000000000000000    
!VSCFREC=  0.000000000000000    
!VCIREC=  0.000000000000000    
!PVCIREC=  0.000000000000000    
!VMP2REC=  0.000000000000000    
!VMCSCFREC=  0.000000000000000    
!VMRCIREC=  0.000000000000000    
!VIBINFO=  0.000000000000000    
!GAREC=  0.000000000000000    
!SCFORB=  21002.00000000000    
!NEWMOL=  0.000000000000000    
!NEWSYM=  0.000000000000000    
_SLFILES=slscratch
_NGSSTO=  9.000000000000000    
_SIN=SIN
_COS=COS
_TAN=TAN
_ACOS=ACOS
_ASIN=ASIN
_ATAN=ATAN
_COSH=COSH
_SINH=SINH
_TANH=TANH
_ABS=ABS
_MOD=MOD
_ERF=ERF
_REFC=REFC
_ERFC=ERFC
_HYPOT=HYPOT
_J0=J0
_J1=J1
_JN=JN
_GAMMA=GAMMA
_LGAMMA=LGAMMA
_Y0=Y0
_Y1=Y1
_YN=YN
_EXP=EXP
_LOG=LOG
_LOG10=LOG10
_SQRT=SQRT
_INT=INT
_NINT=NINT
_MAX=MAX
_MIN=MIN
_COSMO=  0.000000000000000    
_COSMOIT=  0.000000000000000    
_COSMOES=  0.000000000000000    
_COSMOEDS=  0.000000000000000    
_COSMOEC=  0.000000000000000    
_COSMOEDCORR=  0.000000000000000    
_FEPSI=  1.000000000000000    
_SL_IsMM=  0.000000000000000    
_SL_NSYM=  1.000000000000000    
_SL_System_BitSw=  0.000000000000000    
_SL_Unique_atoms=  0.000000000000000    
_SL_GRAD=  0.000000000000000    
_SL_MAXUPD_Hess=  5.000000000000000    
_SL_N_PRINT_COD=  5.000000000000000    
_SL_PRINT_CODES=  0.000000000000000    
_SL_BasType=  0.000000000000000    
_SL_Energy_Pred=  0.000000000000000    
_SL_New_Coords=  0.000000000000000    
_SL_Total_Nuclea=  0.000000000000000    
_SL_Highest_Mltp=  0.000000000000000    
_SL_Ref_Geom=  0.000000000000000    
_SL_Symmetry_ope=  1.000000000000000    
_SL_agrad=  0.000000000000000    
_SL_GrdMax=  0.000000000000000    
_SL_GrdNorm=  0.000000000000000    
_SL_GrdRMS=  0.000000000000000    
_SL_Hss_Q=  0.000000000000000    
_SL_Hss_X=  0.000000000000000    
_SL_BMxOld=  0.000000000000000    
_SL_KtB=  0.000000000000000    
!LATTICE= -1.000000000000000    
!NEWLATTICE=  0.000000000000000    
!LATGRAD_VAR=FALSE
!SEW_LATTICE=  1.000000000000000    
!LOCAL=  0.000000000000000    
!SAVEDOM= -1.000000000000000    
!RESTDOM= -1.000000000000000    
!SAVEDOM_HF= -1.000000000000000    
!RESTDOM_HF= -1.000000000000000    
!HESSREC=  0.000000000000000    
!FREQREC=  0.000000000000000    
!NMODREC=  0.000000000000000    
!GTASKS=  0.000000000000000    
!HTASKS=  0.000000000000000    
!THRCHG= 0.1000000000000000    
!DEBUG= -1.000000000000000    
!CFIT_CPHF=  0.000000000000000    
!RDOMAUX_CPHF=  5.000000000000000    
!THRAO_CPHF= 0.9999999999999999E-11
!THRMO_CPHF= 0.9999999999999999E-11
!THROV_CPHF= 0.1000000000000000E-11
!THRSW_CPHF= 0.1000000000000000E-09
!THRPROD_CPHF= 0.9999999999999999E-11
!THRAOPR_CPHF= 0.1000000000000000E-11
!CFIT_SCFGRD=  0.000000000000000    
!RDOMAUX_SCFGRD=  7.000000000000000    
!THRAO_SCFGRD= 0.9999999999999999E-11
!THRMO_SCFGRD= 0.9999999999999999E-11
!THROV_SCFGRD= 0.1000000000000000E-11
!THRSW_SCFGRD= 0.1000000000000000E-09
!THRPROD_SCFGRD= 0.9999999999999999E-11
!THRAOPR_SCFGRD= 0.1000000000000000E-11
!LOCFIT_SCF=  0.000000000000000    
!LOCFIT_MP2= -1.000000000000000    
_RIDOM=  0.000000000000000    
!CC2_METHOD=  0.000000000000000    
_BASIS2006=FALSE
_SVDDEL= -1.000000000000000    
_SVDDELA= -1.000000000000000    
_SVDDELP= -1.000000000000000    
_SVDDELF= -1.000000000000000    
_SVDDELS= -1.000000000000000    
_SVDDEL_ABS= -1.000000000000000    
_SVDDELA_ABS= -1.000000000000000    
_SVDDELP_ABS= -1.000000000000000    
_SVDDELF_ABS= -1.000000000000000    
_SVDDELS_ABS= -1.000000000000000    
_MAXBASIS=  0.000000000000000    
!OPT_CONICAL=  0.000000000000000    
!CLEARSP_JGRID=  0.000000000000000    
_4EXT_NDISKS=  1.000000000000000    
!ZMP=  0.000000000000000    
_MAXIT_ZMP=  500.0000000000000    
_MAXDIS_ZMP=  100.0000000000000    
_ACCU_ZMP=  14.00000000000000    
_SHIFTA_ZMP= -100.0000000000000    
!EMBEDFLAG=  1.000000000000000    
!EMBED=FALSE
!EMBED_F12=FALSE
!EMBEDNUC=  0.000000000000000    
_EMBEDENERGY=  0.000000000000000    
_KSPACETIME=  0.000000000000000    
_RSPACETIME=  0.000000000000000    
!EMBED_DFC=FALSE
!NUM_VOIDS=  0.000000000000000    
_IBODY=  0.000000000000000    
_EMBE_TOTAL=  0.000000000000000    
_EMBE_HF=  0.000000000000000    
_EMBE_CORR=  0.000000000000000    
!EDFT=  0.000000000000000    
_IFASTLATGRAD=  0.000000000000000    
_SINDEX=  0.000000000000000    
BSET=6-31G
CC2=  1.388306091995996    
CC3=  1.388304052247077    
CCC3=  120.0000477021718    
CC4=  1.388299258160075    
CCC4=  120.0001359379863    
DIH4= 0.6091847019564591E-15
CC5=  1.388304052243444    
CCC5=  120.0001360318923    
DIH5=-0.1230858142253045E-15
CC6=  1.388306092848865    
CCC6=  120.0000475398424    
DIH6=-0.4413926943192846E-15
HC7=  1.073284012667669    
HCC7=  119.9994891143040    
DIH7=  180.0000000000000    
HC8=  1.073282587038446    
HCC8=  119.9997456842057    
DIH8=  180.0000000000000    
HC9=  1.073282587065228    
HCC9=  120.0004379649989    
DIH9=  180.0000000000000    
HC10=  1.073284013091366    
HCC10=  120.0004634369100    
DIH10=  180.0000000000000    
HC11=  1.073285393744413    
HCC11=  119.9996412907145    
DIH11=  180.0000000000000    
HC12=  1.073285393881638    
HCC12=  120.0002226231453    
DIH12=  180.0000000000000    
GX1=  2.623515202019370    
GY1=-0.7434089723112880E-03
GZ1=-0.2035531813778254E-16
GX2=  1.311116154070175    
GY2= -2.272407339172425    
GZ2=-0.2035531813778254E-16
GX3=  1.312399871832294    
GY3=  2.271657224441659    
GZ3=-0.2035531813778254E-16
GX4= -1.311105408096704    
GY4=  2.272404579794093    
GZ4= 0.3801423432951940E-17
GX5= -2.623515202142110    
GY5= 0.7513095414684035E-03
GZ5= 0.2307745943825769E-16
GX6= -1.312410616882732    
GY6= -2.271659975371235    
GZ6= 0.6935209514145198E-18
GX7=  4.651727961566257    
GY7=-0.1332768096339532E-02
GZ7= 0.1784803974227864E-15
GX8=  2.324713022102431    
GY8= -4.029182170004962    
GZ8= 0.1774474393842222E-15
GX9= -2.327008220949017    
GY9= -4.027857036967608    
GZ9= 0.2307014147067929E-15
GX10= -4.651727969091182    
GY10= 0.1317494696828181E-02
GZ10= 0.2568591243590398E-15
GX11= -2.324719553642858    
GY11=  4.029175565431876    
GZ11=-0.1940018739149482E-15
GX12=  2.327014750477669    
GY12=  4.027850431669538    
GZ12=-0.2503644945515198E-15
TITLE=../input/benzene_6-31G_optg.mld
[Atoms] Angs
C     1    6         1.3883044524       -0.0003933951        0.0000000000
C     2    6         0.6938127871       -1.2025061735        0.0000000000
C     3    6         0.6944921013        1.2021092298        0.0000000000
C     4    6        -0.6938071006        1.2025047133        0.0000000000
C     5    6        -1.3883044524        0.0003975759        0.0000000000
C     6    6        -0.6944977873       -1.2021106856        0.0000000000
H     7    1         2.4615884197       -0.0007052705        0.0000000000
H     8    1         1.2301851488       -2.1321513753        0.0000000000
H     9    1        -1.2313997157       -2.1314501451        0.0000000000
H    10    1        -2.4615884237        0.0006971882        0.0000000000
H    11    1        -1.2301886051        2.1321478803        0.0000000000
H    12    1         1.2314031710        2.1314466497        0.0000000000
[GTO]
  1 0
 s    6  1.00
  0.3047524900D+04  0.1834737091D-02
  0.4573695200D+03  0.1403732293D-01
  0.1039486800D+03  0.6884262165D-01
  0.2921015500D+02  0.2321844388D+00
  0.9286663000D+01  0.4679413476D+00
  0.3163927000D+01  0.3623119882D+00
 s    3  1.00
  0.7868272300D+01 -0.1193324245D+00
  0.1881288500D+01 -0.1608541561D+00
  0.5442492600D+00  0.1143456443D+01
 s    1  1.00
  0.1687144800D+00  0.1000000000D+01
 p    3  1.00
  0.7868272300D+01  0.6899906693D-01
  0.1881288500D+01  0.3164239597D+00
  0.5442492600D+00  0.7443082892D+00
 p    1  1.00
  0.1687144800D+00  0.1000000000D+01
  
  2 0
 s    6  1.00
  0.3047524900D+04  0.1834737091D-02
  0.4573695200D+03  0.1403732293D-01
  0.1039486800D+03  0.6884262165D-01
  0.2921015500D+02  0.2321844388D+00
  0.9286663000D+01  0.4679413476D+00
  0.3163927000D+01  0.3623119882D+00
 s    3  1.00
  0.7868272300D+01 -0.1193324245D+00
  0.1881288500D+01 -0.1608541561D+00
  0.5442492600D+00  0.1143456443D+01
 s    1  1.00
  0.1687144800D+00  0.1000000000D+01
 p    3  1.00
  0.7868272300D+01  0.6899906693D-01
  0.1881288500D+01  0.3164239597D+00
  0.5442492600D+00  0.7443082892D+00
 p    1  1.00
  0.1687144800D+00  0.1000000000D+01
  
  3 0
 s    6  1.00
  0.3047524900D+04  0.1834737091D-02
  0.4573695200D+03  0.1403732293D-01
  0.1039486800D+03  0.6884262165D-01
  0.2921015500D+02  0.2321844388D+00
  0.9286663000D+01  0.4679413476D+00
  0.3163927000D+01  0.3623119882D+00
 s    3  1.00
  0.7868272300D+01 -0.1193324245D+00
  0.1881288500D+01 -0.1608541561D+00
  0.5442492600D+00  0.1143456443D+01
 s    1  1.00
  0.1687144800D+00  0.1000000000D+01
 p    3  1.00
  0.7868272300D+01  0.6899906693D-01
  0.1881288500D+01  0.3164239597D+00
  0.5442492600D+00  0.7443082892D+00
 p    1  1.00
  0.1687144800D+00  0.1000000000D+01
  
  4 0
 s    6  1.00
  0.3047524900D+04  0.1834737091D-02
  0.4573695200D+03  0.1403732293D-01
  0.1039486800D+03  0.6884262165D-01
  0.2921015500D+02  0.2321844388D+00
  0.9286663000D+01  0.4679413476D+00
  0.3163927000D+01  0.3623119882D+00
 s    3  1.00
  0.7868272300D+01 -0.1193324245D+00
  0.1881288500D+01 -0.1608541561D+00
  0.5442492600D+00  0.1143456443D+01
 s    1  1.00
  0.1687144800D+00  0.1000000000D+01
 p    3  1.00
  0.7868272300D+01  0.6899906693D-01
  0.1881288500D+01  0.3164239597D+00
  0.5442492600D+00  0.7443082892D+00
 p    1  1.00
  0.1687144800D+00  0.1000000000D+01
  
  5 0
 s    6  1.00
  0.3047524900D+04  0.1834737091D-02
  0.4573695200D+03  0.1403732293D-01
  0.1039486800D+03  0.6884262165D-01
  0.2921015500D+02  0.2321844388D+00
  0.9286663000D+01  0.4679413476D+00
  0.3163927000D+01  0.3623119882D+00
 s    3  1.00
  0.7868272300D+01 -0.1193324245D+00
  0.1881288500D+01 -0.1608541561D+00
  0.5442492600D+00  0.1143456443D+01
 s    1  1.00
  0.1687144800D+00  0.1000000000D+01
 p    3  1.00
  0.7868272300D+01  0.6899906693D-01
  0.1881288500D+01  0.3164239597D+00
  0.5442492600D+00  0.7443082892D+00
 p    1  1.00
  0.1687144800D+00  0.1000000000D+01
  
  6 0
 s    6  1.00
  0.3047524900D+04  0.1834737091D-02
  0.4573695200D+03  0.1403732293D-01
  0.1039486800D+03  0.6884262165D-01
  0.2921015500D+02  0.2321844388D+00
  0.9286663000D+01  0.4679413476D+00
  0.3163927000D+01  0.3623119882D+00
 s    3  1.00
  0.7868272300D+01 -0.1193324245D+00
  0.1881288500D+01 -0.1608541561D+00
  0.5442492600D+00  0.1143456443D+01
 s    1  1.00
  0.1687144800D+00  0.1000000000D+01
 p    3  1.00
  0.7868272300D+01  0.6899906693D-01
  0.1881288500D+01  0.3164239597D+00
  0.5442492600D+00  0.7443082892D+00
 p    1  1.00
  0.1687144800D+00  0.1000000000D+01
  
  7 0
 s    3  1.00
  0.1873113700D+02  0.3349460400D-01
  0.2825394400D+01  0.2347269500D+00
  0.6401216900D+00  0.8137573301D+00
 s    1  1.00
  0.1612777600D+00  0.1000000000D+01
  
  8 0
 s    3  1.00
  0.1873113700D+02  0.3349460400D-01
  0.2825394400D+01  0.2347269500D+00
  0.6401216900D+00  0.8137573301D+00
 s    1  1.00
  0.1612777600D+00  0.1000000000D+01
  
  9 0
 s    3  1.00
  0.1873113700D+02  0.3349460400D-01
  0.2825394400D+01  0.2347269500D+00
  0.6401216900D+00  0.8137573301D+00
 s    1  1.00
  0.1612777600D+00  0.1000000000D+01
  
 10 0
 s    3  1.00
  0.1873113700D+02  0.3349460400D-01
  0.2825394400D+01  0.2347269500D+00
  0.6401216900D+00  0.8137573301D+00
 s    1  1.00
  0.1612777600D+00  0.1000000000D+01
  
 11 0
 s    3  1.00
  0.1873113700D+02  0.3349460400D-01
  0.2825394400D+01  0.2347269500D+00
  0.6401216900D+00  0.8137573301D+00
 s    1  1.00
  0.1612777600D+00  0.1000000000D+01
  
 12 0
 s    3  1.00
  0.1873113700D+02  0.3349460400D-01
  0.2825394400D+01  0.2347269500D+00
  0.6401216900D+00  0.8137573301D+00
 s    1  1.00
  0.1612777600D+00  0.1000000000D+01
 
 
[MO]
 Sym=      1.1
 Ene=     -11.2350
 Spin= Alpha
 Occup=    2.000000
1 0.40650284816702
2 0.009433072617630
3 -0.002887422489415
4 0.000055433004257
5 0.000000126179806
6 -0.000000000000000
7 -0.000472775330894
8 -0.000000773352705
9 -0.000000000000000
10 0.40675592774059
11 0.009439293607120
12 -0.002890319891299
13 0.000027724265272
14 -0.000047906698743
15 -0.000000000000000
16 -0.000236536901579
17 0.000409051102329
18 0.000000000000000
19 0.40625196855492
20 0.009426909691796
21 -0.002884575421141
22 0.000027707881243
23 0.000048105507819
24 0.000000000000000
25 -0.000236234722588
26 -0.000409805324790
27 0.000000000000000
28 0.40625198291142
29 0.009426910204162
30 -0.002884577769522
31 -0.000027681083230
32 0.000048120891993
33 -0.000000000000000
34 0.000236000321365
35 -0.000409938312217
36 0.000000000000000
37 0.40650293113292
38 0.009433074493974
39 -0.002887421361883
40 -0.000055432936779
41 0.000000157033585
42 -0.000000000000000
43 0.000472776438750
44 -0.000001042526535
45 -0.000000000000000
46 0.40675599586817
47 0.009439295514579
48 -0.002890323411183
49 -0.000027750834932
50 -0.000047891327884
51 0.000000000000000
52 0.000236768574124
53 0.000408915509370
54 0.000000000000000
55 -0.000154463711620
56 0.001179855731054
57 -0.000154572944271
58 0.001180325528755
59 -0.000154572987881
60 0.001180325470291
61 -0.000154463676881
62 0.001179856459013
63 -0.000154355651519
64 0.001179386201349
65 -0.000154355563600
66 0.001179386754084
 Sym=      2.1
 Ene=     -11.2345
 Spin= Alpha
 Occup=    2.000000
1 -0.011396573088786
2 -0.000280294231717
3 0.000130328770580
4 0.000003964644788
5 0.000282923358293
6 -0.000000000000000
7 -0.000012238321309
8 -0.001802131620447
9 -0.000000000000000
10 0.49218435247792
11 0.012111215267107
12 -0.005616257925203
13 0.000040970020477
14 0.000221528695742
15 0.000000000000000
16 -0.000553444099830
17 -0.000904625707932
18 0.000000000000000
19 -0.50359419734658
20 -0.012391258249731
21 0.005743446830124
22 -0.000030761428526
23 0.000220074918772
24 -0.000000000000000
25 0.000495102086342
26 -0.000883524968693
27 -0.000000000000000
28 -0.49250289170905
29 -0.012118346046761
30 0.005616951505959
31 0.000041007638995
32 0.000221440410708
33 0.000000000000000
34 -0.000553473047782
35 -0.000903470079151
36 0.000000000000000
37 0.010792821038739
38 0.000265705436175
39 -0.000122798563937
40 0.000003919558668
41 0.000282923598757
42 -0.000000000000000
43 -0.000011608993360
44 -0.001802144781788
45 -0.000000000000000
46 0.50328255181147
47 0.012384307426361
48 -0.005742916203028
49 -0.000030721991611
50 0.000220165940316
51 -0.000000000000000
52 0.000495042449067
53 -0.000884707589241
54 -0.000000000000000
55 0.000004866057576
56 -0.000021204152880
57 -0.000211190104285
58 0.000909254618416
59 -0.000215951769568
60 0.000929759115139
61 -0.000004654696720
62 0.000019800743592
63 0.000211318731294
64 -0.000910339955091
65 0.000216078433953
66 -0.000930836125773
 Sym=      3.1
 Ene=     -11.2345
 Spin= Alpha
 Occup=    2.000000
1 0.57490887293403
2 0.014146410889568
3 -0.006558465250085
4 -0.000200094716975
5 0.000005523076023
6 0.000000000000000
7 0.000591372596369
8 -0.000035294842112
9 0.000000000000000
10 0.29715196677978
11 0.007311969440547
12 -0.003391031706864
13 -0.000261557371263
14 -0.000031491668972
15 -0.000000000000000
16 0.001489872589355
17 0.000506192651287
18 -0.000000000000000
19 0.27775788175719
20 0.006834484554559
21 -0.003167608165179
22 -0.000262876403318
23 0.000040237023290
24 0.000000000000000
25 0.001509051214702
26 -0.000542280058543
27 0.000000000000000
28 -0.29698049189056
29 -0.007307469394064
30 0.003386841331005
31 -0.000261511544464
32 -0.000031566925238
33 -0.000000000000000
34 0.001489114438715
35 0.000506939777409
36 -0.000000000000000
37 -0.57492050674543
38 -0.014146692038519
39 0.006558610564213
40 -0.000200095585960
41 0.000005511571030
42 0.000000000000000
43 0.000591384675509
44 -0.000034598701257
45 0.000000000000000
46 -0.27794135970231
47 -0.006839252646693
48 0.003171820891932
49 -0.000262920842436
50 0.000040165229833
51 -0.000000000000000
52 0.001509808374575
53 -0.000541578091995
54 -0.000000000000000
55 -0.000246681789055
56 0.001062369014989
57 -0.000127489902593
58 0.000549031918567
59 0.000119246937900
60 -0.000513542299987
61 0.000246685840067
62 -0.001062396230658
63 0.000127441396371
64 -0.000548848572325
65 -0.000119193548228
66 0.000513317896742
 Sym=      4.1
 Ene=     -11.2332
 Spin= Alpha
 Occup=    2.000000
1 0.006992506516448
2 0.000183105957484
3 -0.000163376301518
4 -0.000003754940115
5 0.000043401322912
6 0.000000000000000
7 0.000037250668448
8 -0.001912838292493
9 0.000000000000000
10 0.49466171149283
11 0.012974133972671
12 -0.011940379825986
13 -0.000152554469591
14 0.000220124194731
15 0.000000000000000
16 0.002295234717008
17 -0.002022780672415
18 -0.000000000000000
19 -0.50164207098261
20 -0.013156171686955
21 0.012094394583701
22 0.000153787877214
23 0.000223676407147
24 -0.000000000000000
25 -0.002277002787108
26 -0.002070925566740
27 -0.000000000000000
28 0.49432807292468
29 0.012964348692571
30 -0.011917977608348
31 0.000152516277764
32 -0.000219868857785
33 -0.000000000000000
34 -0.002290914750300
35 0.002014101817553
36 -0.000000000000000
37 0.007631312196168
38 0.000200436668430
39 -0.000189409135629
40 0.000004109973528
41 -0.000043400252010
42 0.000000000000000
43 -0.000047254713550
44 0.001912833659405
45 0.000000000000000
46 -0.50197143025498
47 -0.013165851267497
48 0.012116747540004
49 -0.000153826520424
50 -0.000223929708110
51 0.000000000000000
52 0.002281332374434
53 0.002079594227933
54 0.000000000000000
55 -0.000001891156952
56 0.000008403565948
57 -0.000139092792833
58 0.000546366380996
59 0.000141147179832
60 -0.000554449636610
61 -0.000002219456730
62 0.000007771168500
63 -0.000138892992910
64 0.000547561065688
65 0.000140949206190
66 -0.000555652231202
 Sym=      5.1
 Ene=     -11.2332
 Spin= Alpha
 Occup=    2.000000
1 0.57521962842149
2 0.015086431044824
3 -0.013876638893237
4 -0.000310335060238
5 -0.000000417275526
6 -0.000000000000000
7 0.003366807359648
8 0.000023058678649
9 -0.000000000000000
10 -0.29385812916136
11 -0.007707226183692
12 0.007090167239248
13 0.000046943135278
14 -0.000155967538915
15 0.000000000000000
16 0.000564404073494
17 0.002311881457872
18 0.000000000000000
19 -0.28136015995647
20 -0.007379185075871
21 0.006786576543988
22 0.000043124018192
23 0.000150378203277
24 -0.000000000000000
25 0.000621410874216
26 -0.002260481537659
27 -0.000000000000000
28 -0.29402059513322
29 -0.007711220320427
30 0.007091815115815
31 -0.000046930030087
32 0.000156042221798
33 0.000000000000000
34 -0.000564647601551
35 -0.002312073179033
36 0.000000000000000
37 0.57521152824186
38 0.015086211388627
39 -0.013876310199016
40 0.000310330606069
41 0.000000508652006
42 0.000000000000000
43 -0.003366681182230
44 -0.000023653207742
45 0.000000000000000
46 -0.28118942973720
47 -0.007374947711587
48 0.006784364564426
49 -0.000043136156795
50 -0.000150297126983
51 -0.000000000000000
52 -0.000621276822957
53 0.002260070930505
54 -0.000000000000000
55 -0.000161684213422
56 0.000636244842936
57 0.000082587122088
58 -0.000324961713091
59 0.000079024774324
60 -0.000310969072792
61 -0.000161680031710
62 0.000636252796644
63 0.000082654963459
64 -0.000325287508301
65 0.000079097570669
66 -0.000311264474385
 Sym=      6.1
 Ene=     -11.2326
 Spin= Alpha
 Occup=    2.000000
1 0.40692240811984
2 0.011532913570691
3 -0.022394014877894
4 -0.000273262686831
5 0.000000100361162
6 0.000000000000000
7 0.009329948377287
8 -0.000003675642525
9 0.000000000000000
10 -0.40665600481082
11 -0.011525908810182
12 0.022387395789016
13 0.000136477124234
14 -0.000236568882900
15 -0.000000000000000
16 -0.004661403856293
17 0.008080179537550
18 -0.000000000000000
19 -0.40718729172828
20 -0.011539881753202
21 0.022400611890106
22 0.000136784784240
23 0.000236735879545
24 0.000000000000000
25 -0.004668554209926
26 -0.008079777331279
27 0.000000000000000
28 0.40718727552716
29 0.011539881310370
30 -0.022400610970919
31 0.000136649680838
32 -0.000236813908190
33 -0.000000000000000
34 -0.004663950154586
35 0.008082435751198
36 -0.000000000000000
37 -0.40692232140399
38 -0.011532911304610
39 0.022394012821303
40 -0.000273262679806
41 0.000000055566827
42 -0.000000000000000
43 0.009329948670652
44 -0.000001640427941
45 -0.000000000000000
46 0.40665593491759
47 0.011525907041681
48 -0.022387394814745
49 0.000136612086136
50 0.000236490892517
51 0.000000000000000
52 -0.004666006846510
53 -0.008077521942692
54 0.000000000000000
55 -0.000230922413551
56 -0.000991949685699
57 0.000230848754369
58 0.000992246459355
59 -0.000230848710149
60 -0.000992246469724
61 0.000230922413664
62 0.000991949899031
63 -0.000230997026667
64 -0.000991664147423
65 0.000230996981223
66 0.000991664098425
 Sym=      7.1
 Ene=      -1.1555
 Spin= Alpha
 Occup=    2.000000
1 -0.092878393340448
2 0.18248321591782
3 0.10785187972092
4 -0.062942392888871
5 0.000018818976411
6 0.000000000000000
7 -0.007794768370040
8 0.000001971548014
9 0.000000000000000
10 -0.092877116003885
11 0.18248067832924
12 0.10785030450626
13 -0.031454599800938
14 0.054518412238040
15 0.000000000000000
16 -0.003895637635029
17 0.006751552165088
18 0.000000000000000
19 -0.092879677925954
20 0.18248580708216
21 0.10785328661697
22 -0.031487940389746
23 -0.054501055177792
24 0.000000000000000
25 -0.003899020639044
26 -0.006749155252118
27 0.000000000000000
28 -0.092879677891471
29 0.18248580675504
30 0.10785328701630
31 0.031456892714781
32 -0.054518980928345
33 -0.000000000000000
34 0.003895162901613
35 -0.006751384643925
36 -0.000000000000000
37 -0.092878393134627
38 0.18248321532284
39 0.10785188171967
40 0.062942393352244
41 -0.000017031791523
42 0.000000000000000
43 0.007794768988914
44 -0.000002484841895
45 0.000000000000000
46 -0.092877115894112
47 0.18248067860412
48 0.10785030165184
49 0.031485647180886
50 0.054500487502143
51 -0.000000000000000
52 0.003899495333315
53 0.006749320303606
54 -0.000000000000000
55 0.036207782646235
56 0.004667998990017
57 0.036207395476784
58 0.004668014558140
59 0.036207395264240
60 0.004668012739952
61 0.036207782483070
62 0.004667998867521
63 0.036208162516608
64 0.004667866358922
65 0.036208162471972
66 0.004667865105722
 Sym=      8.1
 Ene=      -1.0168
 Spin= Alpha
 Occup=    2.000000
1 0.000070135290872
2 -0.000140902626704
3 -0.000104742245231
4 0.000050157949195
5 0.11583607032762
6 -0.000000000000000
7 0.000000283362005
8 0.009617512963301
9 0.000000000000000
10 0.11198912447562
11 -0.22494093550804
12 -0.16740708674198
13 0.064160315548422
14 0.004581661048977
15 -0.000000000000000
16 0.002759295538396
17 0.004831223625658
18 -0.000000000000000
19 -0.11191940215153
20 0.22480100224214
21 0.16730198500269
22 -0.064243971452159
23 0.004687839842761
24 -0.000000000000000
25 -0.002764418018771
26 0.004836491767693
27 -0.000000000000000
28 -0.11198809778492
29 0.22493898602532
30 0.16740467040935
31 0.064162910288288
32 0.004583033195095
33 -0.000000000000000
34 0.002758641219149
35 0.004831982328594
36 -0.000000000000000
37 -0.000067256266349
38 0.000135064890520
39 0.000100634512008
40 0.000050309882851
41 0.11583606987715
42 0.000000000000000
43 0.000001756604855
44 0.009617513094270
45 0.000000000000000
46 0.11192042866758
47 -0.22480295144596
48 -0.16730440083440
49 -0.064241376672195
50 0.004686466418175
51 0.000000000000000
52 -0.002765072929618
53 0.004835735948124
54 0.000000000000000
55 -0.000042636658503
56 -0.000008336195224
57 -0.067763501246588
58 -0.013610473343735
59 -0.067721934762857
60 -0.013602124551532
61 0.000040496283317
62 0.000008361701261
63 0.067762261384140
64 0.013609830530239
65 0.067720694961245
66 0.013601483072516
 Sym=      9.1
 Ene=      -1.0168
 Spin= Alpha
 Occup=    2.000000
1 -0.12927365346977
2 0.25965865220925
3 0.19324450075701
4 -0.032432238128943
5 0.000070818433006
6 -0.000000000000000
7 0.003239281614555
8 0.000003904104504
9 -0.000000000000000
10 -0.064577318919026
11 0.12970978032916
12 0.096533255117298
13 0.078820886350945
14 0.064182067537134
15 -0.000000000000000
16 0.008024992225893
17 0.002762247314922
18 0.000000000000000
19 -0.064696314318170
20 0.12994885535471
21 0.096711015115024
22 0.078717003744887
23 -0.064222136785333
24 -0.000000000000000
25 0.008021006135676
26 -0.002761353796732
27 0.000000000000000
28 0.064577330437607
29 -0.12970986205942
30 -0.096533152837791
31 0.078821811274404
32 0.064182179046169
33 -0.000000000000000
34 0.008025515306348
35 0.002761920809467
36 -0.000000000000000
37 0.12927365506724
38 -0.25965865559498
39 -0.19324450204959
40 -0.032432238513106
41 0.000070752458822
42 -0.000000000000000
43 0.003239284201485
44 0.000004473049013
45 -0.000000000000001
46 0.064696304166520
47 -0.12994877606348
48 -0.096711121525478
49 0.078716081945457
50 -0.064222025995077
51 -0.000000000000000
52 0.008020481682728
53 -0.002761682467482
54 0.000000000000000
55 0.078221886330808
56 0.015710864673053
57 0.039074894965333
58 0.007848224688619
59 -0.039146890882108
60 -0.007862684931587
61 -0.078221887336273
62 -0.015710863704706
63 -0.039074957625524
64 -0.007848119169521
65 0.039146951900959
66 0.007862577831095
 Sym=     10.1
 Ene=      -0.8238
 Spin= Alpha
 Occup=    2.000000
1 -0.10091806760564
2 0.20631178318836
3 0.18030264960457
4 0.061875778667629
5 -0.000039147923021
6 -0.000000000000000
7 0.046090487216195
8 -0.000017561996382
9 -0.000000000000000
10 0.050450060525902
11 -0.10313755947737
12 -0.090135580553321
13 0.14156592594647
14 0.11739265221757
15 -0.000000000000000
16 0.022162212467426
17 0.039388127464979
18 0.000000000000000
19 0.050468014314537