[Molden Format]
[Atoms] Angs
H     1    1         0.0000000000        0.0000000000       -0.3649799142
H     2    1         0.0000000000        0.0000000000        0.3649799142
[GTO]
   1 0
 s    3  1.00
  0.1873113700D+02  0.3349460400D-01
  0.2825394400D+01  0.2347269500D+00
  0.6401216900D+00  0.8137573301D+00
 s    1  1.00
  0.1612777600D+00  0.1000000000D+01
  
   2 0
 s    3  1.00
  0.1873113700D+02  0.3349460400D-01
  0.2825394400D+01  0.2347269500D+00
  0.6401216900D+00  0.8137573301D+00
 s    1  1.00
  0.1612777600D+00  0.1000000000D+01


[MO]
 Sym=      1.1
 Ene=      -0.5989
 Spin= Alpha
 Occup=    2.000000
1 0.32856903318901
2 0.26928574363544
3 0.32856903318901
4 0.26928574363544
 Sym=      1.5
 Ene=       0.2412
 Spin= Alpha
 Occup=    0.000000
1 0.12067014190703
2 1.74065701598955
3 -0.12067014190703
4 -1.74065701598955
 Sym=      2.1
 Ene=       0.7699
 Spin= Alpha
 Occup=    0.000000
1 0.76184313389652
2 -0.68562085718129
3 0.76184313389652
4 -0.68562085718129
 Sym=      2.5
 Ene=       1.4179
 Spin= Alpha
 Occup=    0.000000
1 1.13106655033761
2 -1.35734440352096
3 -1.13106655033761
4 1.35734440352096
 [FREQ]
      0.00
      0.00
      0.00
      0.00
      0.00
   4646.33
 [FR-COORD]
H          0.0000000000        0.0000000000       -0.6897120813
H          0.0000000000        0.0000000000        0.6897120813
 [FR-NORM-COORD]
 Vibration                    1
         -0.00000000          0.70431617         -0.00000000
          0.00000000          0.70431617         -0.00000000
 Vibration                    2
          0.70431617          0.00000000         -0.00000000
          0.70431617          0.00000000         -0.00000000
 Vibration                    3
          0.00000000          0.70431617         -0.00000000
          0.00000000         -0.70431617         -0.00000000
 Vibration                    4
          0.70431617         -0.00000000          0.00000000
         -0.70431617          0.00000000          0.00000000
 Vibration                    5
          0.00000000          0.00000000          0.70431617
          0.00000000          0.00000000          0.70431617
 Vibration                    6
         -0.00000000         -0.00000000          0.70431617
         -0.00000000          0.00000000         -0.70431617
