[Molden Format]
[Molpro variables]
_NUMVAR=  787.0000000000000    
_AVOGAD= 0.6022136736000000E+24
_BOLTZ= 0.1380658000000000E-22
_CLIGHT=  29979245800.00000    
_EV2006= 0.3674930886769165E-01
_EV= 0.3674932534394180E-01
_ENULL= 0.8854187817000000E-11
_KJOULE= 0.3808798324128737E-03
_KJOULE/MOL= 0.3808798324128737E-03
_CM= 0.4556335267302901E-05
_CM-1= 0.4556335267302901E-05
_DEB2SI= 0.3335641000000000E-29
_AMU2AU=  1822.888390000000    
_KCAL= 0.1593601117815568E-02
_KCAL/MOL= 0.1593601117815568E-02
_KELVIN2006= 0.3166828861084835E-05
_KELVIN= 0.3166814820820034E-05
_JOULE= 0.4359748200000000E-17
_HERTZ2006= 0.1519829850815779E-15
_HERTZ= 0.1519829846011223E-15
_HZ2006= 0.1519829850815779E-15
_HZ= 0.1519829846011223E-15
_JPCAL=  4.184000000000000    
_PLANCK= 0.6626075540000000E-33
_TOA2006= 0.5291772490000000    
_TOA= 0.5291772090000000    
_TOANG2006= 0.5291772490000000    
_TOANG= 0.5291772090000000    
_TORAD= 0.1745329251994330E-01
_TOCM=  219474.6306700000    
_TODEBYE=  2.541580000000000    
_TOEV2006=  27.21139610000000    
_TOE= 0.4803242000000000E-09
_TOEV=  27.21138390000000    
_TOHERTZ2006=  6579683899900000.    
_TOHERTZ=  6579683920700000.    
_TOHZ2006=  6579683899900000.    
_TOHZ=  6579683920700000.    
_TOK2006=  315773.3000000000    
_TOK=  315774.7000000000    
_TOKCAL=  627.5096000000000    
_TOKELVIN2006=  315773.3000000000    
_TOKELVIN=  315774.7000000000    
_TOKJ=  2625.500000000000    
_TOKJOULE=  2625.500000000000    
_TOKG= 0.1660565586000000E-26
_ANG2006=  1.889725988578923    
_ANG=  1.889726131421507    
_ANGSTROM2006=  1.889725988578923    
_ANGSTROM=  1.889726131421507    
_RPAREF=  0.000000000000000    
_RPADISS=  0.000000000000000    
_IGNORE_UNDEF=  2.000000000000000    
_STRICTCHECK=  0.000000000000000    
_SEW_ONEEL=  0.000000000000000    
_CPPDONE=FALSE
_DKROLL_DONE=  0.000000000000000    
_FOCKDONE=TRUE
_GRADONE=FALSE
_HESSDONE=FALSE
_INTDONE=TRUE
_SCFDONE=TRUE
_MODUL_BLOCK=FALSE
_MODUL_CUDA=FALSE
_MODUL_SLATER=FALSE
_MODUL_MRCC=FALSE
_MODUL_NBO6=FALSE
_MODUL_NECI=TRUE
_MODUL_AIMS=TRUE
_MRCC_EXEC=
_FITC_AO_SAVED=FALSE
_FITC_MO_SAVED=FALSE
_SHARED_FS=TRUE
_LSTYP=SEWARD
_INTYP=INTS
_GEOMTYP=ZMAT
_GRADTYP=ALASKA
_DIRECT=FALSE
_DKHO= -1.000000000000000    
_SYNCM=  0.000000000000000    
_BASIS=$BSET
_ZORIENT=  1.000000000000000    
_NELEC=  22.00000000000000    
!SPIN=  0.000000000000000    
_QSDSTEP=  0.000000000000000    
_QSDIRC=  0.000000000000000    
_PROGRAM=HF-SCF
_CPUSTEP= 0.1000000000000001E-01
_SYSSTEP=  0.000000000000000    
_WALLSTEP= 0.2000000000000000E-01
!DFSCF=  0.000000000000000    
!SCSGRD=  0.000000000000000    
_BASINP=  610.0000000000000    
_CPUTOT= 0.1300000000000000    
_CPUSORT= 0.9999999999999995E-02
_SYSSORT= 0.2000000000000000E-01
_WALLSORT= 0.3999999910593033E-01
_DFTEXFAC=  1.000000000000000    
_DMX=  0.000000000000000    
_DMY=  0.000000000000000    
_DMZ=  0.000000000000000    
_DMX_SCF=  0.000000000000000    
_DMY_SCF=  0.000000000000000    
_DMZ_SCF=  0.000000000000000    
_EHOMO=-0.4877880433944831    
_ELUMO=-0.3538882782468848E-01
_ENERGY= -187.0168489215464    
_ENUC=  33.86734137600000    
_GRADEXFAC=  9999.000000000000    
_GRADMETHOD=  1.000000000000000    
_NMRMETHOD=  0.000000000000000    
!GRID_FREEZE= -1.000000000000000    
_ITERATIONS=  12.00000000000000    
_LASTNELEC=  22.00000000000000    
_LASTSPIN=  0.000000000000000    
_LASTSYM=  1.000000000000000    
_MPP_PROG=  0.000000000000000    
_NPROC_MPP=  1.000000000000000    
_NPROC_MPPX=  1.000000000000000    
_NPROC_SMP=  1.000000000000000    
_NUMSTEP=  0.000000000000000    
_ORBITAL=  2100.200000000000    
_PI=  3.141592653589793    
_SEIG_MIN= 0.6531465436806924E-01
_SEWPROP=TRUE
_STATUS=  1.000000000000000    
_SYSTOT= 0.3000000000000000E-01
_VERSION=  2012001.000000000    
_WALLTOT= 0.1600000000000000    
_DATE=18-Feb-16
_LASTORB=RHF
_MACHINE=Linux-3.2.0-98-generic/sce-chem-c01105(x86_64) 64 bit serial version
_OUTPUT=/home/s1267651/aixrd/molpro2/template2.xml
_PGROUP=D2h
_TIME=14:17:37
_LIBMOL=/usr/local/molpro/molprop_2012_1_Linux_x86_64_i8/lib/
!VIBCNT=  0.000000000000000    
!RGHFCNT=  0.000000000000000    
!SURFREC=  0.000000000000000    
!POLYREC=  0.000000000000000    
!DIPREC=  0.000000000000000    
!VSCFREC=  0.000000000000000    
!VCIREC=  0.000000000000000    
!PVCIREC=  0.000000000000000    
!VMP2REC=  0.000000000000000    
!VMCSCFREC=  0.000000000000000    
!VMRCIREC=  0.000000000000000    
!VIBINFO=  0.000000000000000    
!GAREC=  0.000000000000000    
!SCFORB=  21002.00000000000    
!NEWMOL= -1.000000000000000    
!NEWSYM= -1.000000000000000    
_SLFILES=slscratch
_NGSSTO=  9.000000000000000    
_SIN=SIN
_COS=COS
_TAN=TAN
_ACOS=ACOS
_ASIN=ASIN
_ATAN=ATAN
_COSH=COSH
_SINH=SINH
_TANH=TANH
_ABS=ABS
_MOD=MOD
_ERF=ERF
_REFC=REFC
_ERFC=ERFC
_HYPOT=HYPOT
_J0=J0
_J1=J1
_JN=JN
_GAMMA=GAMMA
_LGAMMA=LGAMMA
_Y0=Y0
_Y1=Y1
_YN=YN
_EXP=EXP
_LOG=LOG
_LOG10=LOG10
_SQRT=SQRT
_INT=INT
_NINT=NINT
_MAX=MAX
_MIN=MIN
_COSMO=  0.000000000000000    
_COSMOIT=  0.000000000000000    
_COSMOES=  0.000000000000000    
_COSMOEDS=  0.000000000000000    
_COSMOEC=  0.000000000000000    
_COSMOEDCORR=  0.000000000000000    
_FEPSI=  1.000000000000000    
_SL_IsMM=  0.000000000000000    
_SL_NSYM=  8.000000000000000    
_SL_System_BitSw=  0.000000000000000    
_SL_Unique_atoms=  0.000000000000000    
_SL_GRAD=  0.000000000000000    
_SL_MAXUPD_Hess=  5.000000000000000    
_SL_N_PRINT_COD=  5.000000000000000    
_SL_PRINT_CODES=  0.000000000000000    
_SL_BasType=  0.000000000000000    
_SL_Energy_Pred=  0.000000000000000    
_SL_New_Coords=  0.000000000000000    
_SL_Total_Nuclea=  0.000000000000000    
_SL_Highest_Mltp=  0.000000000000000    
_SL_Ref_Geom=  0.000000000000000    
_SL_Symmetry_ope=  1.000000000000000    
_SL_agrad=  0.000000000000000    
_SL_GrdMax=  0.000000000000000    
_SL_GrdNorm=  0.000000000000000    
_SL_GrdRMS=  0.000000000000000    
_SL_Hss_Q=  0.000000000000000    
_SL_Hss_X=  0.000000000000000    
_SL_BMxOld=  0.000000000000000    
_SL_KtB=  0.000000000000000    
!LATTICE= -1.000000000000000    
!NEWLATTICE=  0.000000000000000    
!LATGRAD_VAR=FALSE
!SEW_LATTICE=  1.000000000000000    
!LOCAL=  0.000000000000000    
!SAVEDOM= -1.000000000000000    
!RESTDOM= -1.000000000000000    
!SAVEDOM_HF= -1.000000000000000    
!RESTDOM_HF= -1.000000000000000    
!HESSREC=  0.000000000000000    
!FREQREC=  0.000000000000000    
!NMODREC=  0.000000000000000    
!GTASKS=  0.000000000000000    
!HTASKS=  0.000000000000000    
!THRCHG= 0.1000000000000000    
!DEBUG= -1.000000000000000    
!CFIT_CPHF=  0.000000000000000    
!RDOMAUX_CPHF=  3.000000000000000    
!THRAO_CPHF= 0.1000000000000000E-09
!THRMO_CPHF= 0.1000000000000000E-08
!THROV_CPHF= 0.1000000000000000E-11
!THRSW_CPHF= 0.1000000000000000E-09
!THRPROD_CPHF= 0.1000000000000000E-08
!THRAOPR_CPHF= 0.1000000000000000E-11
!CFIT_SCFGRD=  0.000000000000000    
!RDOMAUX_SCFGRD=  5.000000000000000    
!THRAO_SCFGRD= 0.1000000000000000E-09
!THRMO_SCFGRD= 0.1000000000000000E-08
!THROV_SCFGRD= 0.1000000000000000E-11
!THRSW_SCFGRD= 0.1000000000000000E-09
!THRPROD_SCFGRD= 0.1000000000000000E-08
!THRAOPR_SCFGRD= 0.1000000000000000E-11
!LOCFIT_SCF=  0.000000000000000    
!LOCFIT_MP2= -1.000000000000000    
_RIDOM=  0.000000000000000    
!CC2_METHOD=  0.000000000000000    
_BASIS2006=FALSE
_SVDDEL= -1.000000000000000    
_SVDDELA= -1.000000000000000    
_SVDDELP= -1.000000000000000    
_SVDDELF= -1.000000000000000    
_SVDDELS= -1.000000000000000    
_SVDDEL_ABS= -1.000000000000000    
_SVDDELA_ABS= -1.000000000000000    
_SVDDELP_ABS= -1.000000000000000    
_SVDDELF_ABS= -1.000000000000000    
_SVDDELS_ABS= -1.000000000000000    
_MAXBASIS=  0.000000000000000    
!OPT_CONICAL=  0.000000000000000    
!CLEARSP_JGRID=  0.000000000000000    
_4EXT_NDISKS=  1.000000000000000    
!ZMP=  0.000000000000000    
_MAXIT_ZMP=  500.0000000000000    
_MAXDIS_ZMP=  100.0000000000000    
_ACCU_ZMP=  14.00000000000000    
_SHIFTA_ZMP= -100.0000000000000    
!EMBEDFLAG=  1.000000000000000    
!EMBED=FALSE
!EMBED_F12=FALSE
!EMBEDNUC=  0.000000000000000    
_EMBEDENERGY=  0.000000000000000    
_KSPACETIME=  0.000000000000000    
_RSPACETIME=  0.000000000000000    
!EMBED_DFC=FALSE
!NUM_VOIDS=  0.000000000000000    
_IBODY=  0.000000000000000    
_EMBE_TOTAL=  0.000000000000000    
_EMBE_HF=  0.000000000000000    
_EMBE_CORR=  0.000000000000000    
!EDFT=  0.000000000000000    
_IFASTLATGRAD=  0.000000000000000    
_SINDEX=  0.000000000000000    
BSET=6-31G
GX1=  0.000000000000000    
GY1=  0.000000000000000    
GZ1=  0.000000000000000    
GX2=  0.000000000000000    
GY2=  0.000000000000000    
GZ2=  2.000000000000000    
GX3=  0.000000000000000    
GY3=  0.000000000000000    
GZ3= -2.000000000000000    
TITLE=../input/template2.mld
[Atoms] Angs
C     1    6         0.0000000000        0.0000000000        0.0000000000
O     2    8         0.0000000000        0.0000000000        2.0000000000
O     3    8         0.0000000000        0.0000000000       -2.0000000000
[GTO]
  1 0
 s    6  1.00
  0.3047524900D+04  0.1834737091D-02
  0.4573695200D+03  0.1403732293D-01
  0.1039486800D+03  0.6884262165D-01
  0.2921015500D+02  0.2321844388D+00
  0.9286663000D+01  0.4679413476D+00
  0.3163927000D+01  0.3623119882D+00
 s    3  1.00
  0.7868272300D+01 -0.1193324245D+00
  0.1881288500D+01 -0.1608541561D+00
  0.5442492600D+00  0.1143456443D+01
 s    1  1.00
  0.1687144800D+00  0.1000000000D+01
 p    3  1.00
  0.7868272300D+01  0.6899906693D-01
  0.1881288500D+01  0.3164239597D+00
  0.5442492600D+00  0.7443082892D+00
 p    1  1.00
  0.1687144800D+00  0.1000000000D+01
  
  2 0
 s    6  1.00
  0.5484671700D+04  0.1831074396D-02
  0.8252349500D+03  0.1395017197D-01
  0.1880469600D+03  0.6844507786D-01
  0.5296450000D+02  0.2327143395D+00
  0.1689757000D+02  0.4701928990D+00
  0.5799635300D+01  0.3585208493D+00
 s    3  1.00
  0.1553961600D+02 -0.1107775519D+00
  0.3599933600D+01 -0.1480262626D+00
  0.1013761800D+01  0.1130767020D+01
 s    1  1.00
  0.2700058200D+00  0.1000000000D+01
 p    3  1.00
  0.1553961600D+02  0.7087426737D-01
  0.3599933600D+01  0.3397528370D+00
  0.1013761800D+01  0.7271585736D+00
 p    1  1.00
  0.2700058200D+00  0.1000000000D+01
  
  3 0
 s    6  1.00
  0.5484671700D+04  0.1831074396D-02
  0.8252349500D+03  0.1395017197D-01
  0.1880469600D+03  0.6844507786D-01
  0.5296450000D+02  0.2327143395D+00
  0.1689757000D+02  0.4701928990D+00
  0.5799635300D+01  0.3585208493D+00
 s    3  1.00
  0.1553961600D+02 -0.1107775519D+00
  0.3599933600D+01 -0.1480262626D+00
  0.1013761800D+01  0.1130767020D+01
 s    1  1.00
  0.2700058200D+00  0.1000000000D+01
 p    3  1.00
  0.1553961600D+02  0.7087426737D-01
  0.3599933600D+01  0.3397528370D+00
  0.1013761800D+01  0.7271585736D+00
 p    1  1.00
  0.2700058200D+00  0.1000000000D+01
 
 
[MO]
 Sym=      1.5
 Ene=     -20.6654
 Spin= Alpha
 Occup=    2.000000
1 0.0
2 0.0
3 0.0
4 0.0
5 0.0
6 -0.000259895392200
7 0.0
8 0.0
9 0.002727088951913
10 0.70427363469415
11 0.014609427515099
12 -0.004593372623912
13 0.0
14 0.0
15 -0.000581425593902
16 0.0
17 0.0
18 0.001305946039117
19 -0.70427363469415
20 -0.014609427515099
21 0.004593372623912
22 0.0
23 0.0
24 -0.000581425593902
25 0.0
26 0.0
27 0.001305946039117
 Sym=      1.1
 Ene=     -20.6654
 Spin= Alpha
 Occup=    2.000000
1 -0.000073540662450
2 -0.000434140908152
3 0.001341171965263
4 0.0
5 0.0
6 0.0
7 0.0
8 0.0
9 0.0
10 0.70425552198757
11 0.014176068246685
12 -0.003410216068480
13 0.0
14 0.0
15 -0.000445168920831
16 0.0
17 0.0
18 0.000502270861445
19 0.70425552198757
20 0.014176068246685
21 -0.003410216068480
22 0.0
23 0.0
24 0.000445168920831
25 0.0
26 0.0
27 -0.000502270861445
 Sym=      2.1
 Ene=     -11.5502
 Spin= Alpha
 Occup=    2.000000
1 0.99679056040397
2 0.019068322307347
3 -0.006006215271513
4 0.0
5 0.0
6 0.0
7 0.0
8 0.0
9 0.0
10 -0.000030906470954
11 -0.000232032193706
12 0.000847176957047
13 0.0
14 0.0
15 -0.000108441475399
16 0.0
17 0.0
18 -0.000465960844227
19 -0.000030906470954
20 -0.000232032193706
21 0.000847176957047
22 0.0
23 0.0
24 0.000108441475399
25 0.0
26 0.0
27 0.000465960844227
 Sym=      3.1
 Ene=      -1.2351
 Spin= Alpha
 Occup=    2.000000
1 -0.041661448775946
2 0.097647451169802
3 0.064581259678255
4 0.0
5 0.0
6 0.0
7 0.0
8 0.0
9 0.0
10 -0.15968262925057
11 0.37129119061435
12 0.37355090150817
13 0.0
14 0.0
15 -0.005303979106015
16 0.0
17 0.0
18 -0.014268508655611
19 -0.15968262925057
20 0.37129119061435
21 0.37355090150817
22 0.0
23 0.0
24 0.005303979106015
25 0.0
26 0.0
27 0.014268508655611
 Sym=      2.5
 Ene=      -1.2309
 Spin= Alpha
 Occup=    2.000000
1 0.0
2 0.0
3 0.0
4 0.0
5 0.0
6 0.069449144731988
7 0.0
8 0.0
9 0.009871522096944
10 -0.16225871446655
11 0.37712419387470
12 0.38207822341032
13 0.0
14 0.0
15 -0.005213702281977
16 0.0
17 0.0
18 -0.015513178156698
19 0.16225871446655
20 -0.37712419387470
21 -0.38207822341032
22 0.0
23 0.0
24 -0.005213702281977
25 0.0
26 0.0
27 -0.015513178156698
 Sym=      4.1
 Ene=      -0.8337
 Spin= Alpha
 Occup=    2.000000
1 -0.22041414369615
2 0.51541930482403
3 0.51424749543814
4 0.0
5 0.0
6 0.0
7 0.0
8 0.0
9 0.0
10 0.043484180221902
11 -0.11136806345532
12 -0.12519743873901
13 0.0
14 0.0
15 -0.067904273736320
16 0.0
17 0.0
18 -0.047640527186076
19 0.043484180221902
20 -0.11136806345532
21 -0.12519743873901
22 0.0
23 0.0
24 0.067904273736320
25 0.0
26 0.0
27 0.047640527186076
 Sym=      1.3
 Ene=      -0.5338
 Spin= Alpha
 Occup=    2.000000
1 0.0
2 0.0
3 0.0
4 0.0
5 0.077742853537162
6 0.0
7 0.0
8 0.094142116199375
9 0.0
10 0.0
11 0.0
12 0.0
13 0.0
14 0.46138583155321
15 0.0
16 0.0
17 0.32496206612918
18 0.0
19 0.0
20 0.0
21 0.0
22 0.0
23 0.46138583155321
24 0.0
25 0.0
26 0.32496206612918
27 0.0
 Sym=      1.2
 Ene=      -0.5338
 Spin= Alpha
 Occup=    2.000000
1 0.0
2 0.0
3 0.0
4 0.077742853537162
5 0.0
6 0.0
7 0.094142116199375
8 0.0
9 0.0
10 0.0
11 0.0
12 0.0
13 0.46138583155321
14 0.0
15 0.0
16 0.32496206612918
17 0.0
18 0.0
19 0.0
20 0.0
21 0.0
22 0.46138583155321
23 0.0
24 0.0
25 0.32496206612918
26 0.0
27 0.0
 Sym=      1.6
 Ene=      -0.5239
 Spin= Alpha
 Occup=    2.000000
1 0.0
2 0.0
3 0.0
4 0.0
5 0.0
6 0.0
7 0.0
8 0.0
9 0.0
10 0.0
11 0.0
12 0.0
13 0.47131402349513
14 0.0
15 0.0
16 0.34137052240253
17 0.0
18 0.0
19 0.0
20 0.0
21 0.0
22 -0.47131402349513
23 0.0
24 0.0
25 -0.34137052240253
26 0.0
27 0.0
 Sym=      1.7
 Ene=      -0.5239
 Spin= Alpha
 Occup=    2.000000
1 0.0
2 0.0
3 0.0
4 0.0
5 0.0
6 0.0
7 0.0
8 0.0
9 0.0
10 0.0
11 0.0
12 0.0
13 0.0
14 0.47131402349513
15 0.0
16 0.0
17 0.34137052240253
18 0.0
19 0.0
20 0.0
21 0.0
22 0.0
23 -0.47131402349513
24 0.0
25 0.0
26 -0.34137052240253
27 0.0
 Sym=      3.5
 Ene=      -0.4878
 Spin= Alpha
 Occup=    2.000000
1 0.0
2 0.0
3 0.0
4 0.0
5 0.0
6 -0.56231557285211
7 0.0
8 0.0
9 -0.36725306419322
10 -0.034369654292630
11 0.087848839025574
12 0.15018545003054
13 0.0
14 0.0
15 0.19432662555425
16 0.0
17 0.0
18 0.13788606428007
19 0.034369654292630
20 -0.087848839025574
21 -0.15018545003054
22 0.0
23 0.0
24 0.19432662555425
25 0.0
26 0.0
27 0.13788606428007
 Sym=      2.3
 Ene=      -0.0354
 Spin= Alpha
 Occup=    0.000000
1 0.0
2 0.0
3 0.0
4 0.0
5 0.54383689635651
6 0.0
7 0.0
8 0.58360393505019
9 0.0
10 0.0
11 0.0
12 0.0
13 0.0
14 -0.12404608972218
15 0.0
16 0.0
17 -0.10271611133871
18 0.0
19 0.0
20 0.0
21 0.0
22 0.0
23 -0.12404608972218
24 0.0
25 0.0
26 -0.10271611133871
27 0.0
 Sym=      2.2
 Ene=      -0.0354
 Spin= Alpha
 Occup=    0.000000
1 0.0
2 0.0
3 0.0
4 0.54383689635651
5 0.0
6 0.0
7 0.58360393505019
8 0.0
9 0.0
10 0.0
11 0.0
12 0.0
13 -0.12404608972218
14 0.0
15 0.0
16 -0.10271611133871
17 0.0
18 0.0
19 0.0
20 0.0
21 0.0
22 -0.12404608972218
23 0.0
24 0.0
25 -0.10271611133871
26 0.0
27 0.0
 Sym=      5.1
 Ene=       0.0227
 Spin= Alpha
 Occup=    0.000000
1 -0.072185540788942
2 0.18119006811714
3 0.28196603631735
4 0.0
5 0.0
6 0.0
7 0.0
8 0.0
9 0.0
10 0.008014762814667
11 -0.013150536030906
12 -0.045372424140917
13 0.0
14 0.0
15 0.40386004339621
16 0.0
17 0.0
18 0.44221210286002
19 0.008014762814667
20 -0.013150536030906
21 -0.045372424140917
22 0.0
23 0.0
24 -0.40386004339621
25 0.0
26 0.0
27 -0.44221210286002
 Sym=      4.5
 Ene=       0.1590
 Spin= Alpha
 Occup=    0.000000
1 0.0
2 0.0
3 0.0
4 0.0
5 0.0
6 0.49603840141876
7 0.0
8 0.0
9 0.42509209240317
10 0.025660284814131
11 -0.074325035309219
12 -0.13015221962415
13 0.0
14 0.0
15 0.37949184174203
16 0.0
17 0.0
18 0.45155589519930
19 -0.025660284814131
20 0.074325035309219
21 0.13015221962415
22 0.0
23 0.0
24 0.37949184174203
25 0.0
26 0.0
27 0.45155589519930
 Sym=      3.3
 Ene=       0.6922
 Spin= Alpha
 Occup=    0.000000
1 0.0
2 0.0
3 0.0
4 0.0
5 1.08047394047554
6 0.0
7 0.0
8 -1.07159840414789
9 0.0
10 0.0
11 0.0
12 0.0
13 0.0
14 0.11491227588314
15 0.0
16 0.0
17 0.009034201378765
18 0.0
19 0.0
20 0.0
21 0.0
22 0.0
23 0.11491227588314
24 0.0
25 0.0
26 0.009034201378765
27 0.0
 Sym=      3.2
 Ene=       0.6922
 Spin= Alpha
 Occup=    0.000000
1 0.0
2 0.0
3 0.0
4 1.08047394047554
5 0.0
6 0.0
7 -1.07159840414788
8 0.0
9 0.0
10 0.0
11 0.0
12 0.0
13 0.11491227588314
14 0.0
15 0.0
16 0.009034201378762
17 0.0
18 0.0
19 0.0
20 0.0
21 0.0
22 0.11491227588314
23 0.0
24 0.0
25 0.009034201378762
26 0.0
27 0.0
 Sym=      6.1
 Ene=       0.7540
 Spin= Alpha
 Occup=    0.000000
1 -0.046620780935773
2 1.71195859523610
3 -1.89172692215638
4 0.0
5 0.0
6 0.0
7 0.0
8 0.0
9 0.0
10 -0.029983219863682
11 0.14420324633203
12 0.093895332766286
13 0.0
14 0.0
15 0.005524571712584
16 0.0
17 0.0
18 -0.24499313441879
19 -0.029983219863682
20 0.14420324633203
21 0.093895332766286
22 0.0
23 0.0
24 -0.005524571712584
25 0.0
26 0.0
27 0.24499313441879
 Sym=      5.5
 Ene=       0.8226
 Spin= Alpha
 Occup=    0.000000
1 0.0
2 0.0
3 0.0
4 0.0
5 0.0
6 -0.98727288735548
7 0.0
8 0.0
9 1.75895731592693
10 0.054351500442356
11 -0.26818075433508
12 -0.29026934629337
13 0.0
14 0.0
15 -0.040323429414712
16 0.0
17 0.0
18 0.49196913695986
19 -0.054351500442356
20 0.26818075433508
21 0.29026934629337
22 0.0
23 0.0
24 -0.040323429414712
25 0.0
26 0.0
27 0.49196913695986
 Sym=      2.6
 Ene=       1.1332
 Spin= Alpha
 Occup=    0.000000
1 0.0
2 0.0
3 0.0
4 0.0
5 0.0
6 0.0
7 0.0
8 0.0
9 0.0
10 0.0
11 0.0
12 0.0
13 -0.66782076070905
14 0.0
15 0.0
16 0.74289044549151
17 0.0
18 0.0
19 0.0
20 0.0
21 0.0
22 0.66782076070905
23 0.0
24 0.0
25 -0.74289044549151
26 0.0
27 0.0
 Sym=      2.7
 Ene=       1.1332
 Spin= Alpha
 Occup=    0.000000
1 0.0
2 0.0
3 0.0
4 0.0
5 0.0
6 0.0
7 0.0
8 0.0
9 0.0
10 0.0
11 0.0
12 0.0
13 0.0
14 -0.66782076070905
15 0.0
16 0.0
17 0.74289044549151
18 0.0
19 0.0
20 0.0
21 0.0
22 0.0
23 0.66782076070905
24 0.0
25 0.0
26 -0.74289044549151
27 0.0
 Sym=      4.3
 Ene=       1.2058
 Spin= Alpha
 Occup=    0.000000
1 0.0
2 0.0
3 0.0
4 0.0
5 0.18868504465147
6 0.0
7 0.0
8 -0.40535266415048
9 0.0
10 0.0
11 0.0
12 0.0
13 0.0
14 -0.65987340723691
15 0.0
16 0.0
17 0.79682139548411
18 0.0
19 0.0
20 0.0
21 0.0
22 0.0
23 -0.65987340723691
24 0.0
25 0.0
26 0.79682139548411
27 0.0
 Sym=      4.2
 Ene=       1.2058
 Spin= Alpha
 Occup=    0.000000
1 0.0
2 0.0
3 0.0
4 0.18868504465147
5 0.0
6 0.0
7 -0.40535266415049
8 0.0
9 0.0
10 0.0
11 0.0
12 0.0
13 -0.65987340723691
14 0.0
15 0.0
16 0.79682139548411
17 0.0
18 0.0
19 0.0
20 0.0
21 0.0
22 -0.65987340723691
23 0.0
24 0.0
25 0.79682139548411
26 0.0
27 0.0
 Sym=      7.1
 Ene=       1.2312
 Spin= Alpha
 Occup=    0.000000
1 -0.015008933363439
2 0.28354153634554
3 -0.15713163205226
4 0.0
5 0.0
6 0.0
7 0.0
8 0.0
9 0.0
10 0.044929364426164
11 -0.61975618984251
12 0.62678318174370
13 0.0
14 0.0
15 -0.56603789618655
16 0.0
17 0.0
18 0.55896646220438
19 0.044929364426164
20 -0.61975618984251
21 0.62678318174370
22 0.0
23 0.0
24 0.56603789618655
25 0.0
26 0.0
27 -0.55896646220438
 Sym=      6.5
 Ene=       1.2482
 Spin= Alpha
 Occup=    0.000000
1 0.0
2 0.0
3 0.0
4 0.0
5 0.0
6 0.35018937805376
7 0.0
8 0.0
9 -0.27988025120053
10 0.030823582649727
11 -0.46554898860561
12 0.53560443731729
13 0.0
14 0.0
15 -0.62097903222059
16 0.0
17 0.0
18 0.58084990870446
19 -0.030823582649727
20 0.46554898860561
21 -0.53560443731729
22 0.0
23 0.0
24 -0.62097903222059
25 0.0
26 0.0
27 0.58084990870446
 Sym=      8.1
 Ene=       1.4354
 Spin= Alpha
 Occup=    0.000000
1 0.046410259141772
2 0.36473826204911
3 -0.92750082575081
4 0.0
5 0.0
6 0.0
7 0.0
8 0.0
9 0.0
10 0.052515655215945
11 -0.87692758841433
12 0.99993838378774
13 0.0
14 0.0
15 0.45537539468649
16 0.0
17 0.0
18 -0.62959019153457
19 0.052515655215945
20 -0.87692758841433
21 0.99993838378774
22 0.0
23 0.0
24 -0.45537539468649
25 0.0
26 0.0
27 0.62959019153457
 Sym=      7.5
 Ene=       1.8228
 Spin= Alpha
 Occup=    0.000000
1 0.0
2 0.0
3 0.0
4 0.0
5 0.0
6 0.25715650901785
7 0.0
8 0.0
9 -1.69826951510700
10 0.036710641837243
11 -1.05954166833339
12 1.63369796618609
13 0.0
14 0.0
15 0.38632668128486
16 0.0
17 0.0
18 -0.97062226460623
19 -0.036710641837243
20 1.05954166833339
21 -1.63369796618609
22 0.0
23 0.0
24 0.38632668128486
25 0.0
26 0.0
27 -0.97062226460623
