[Molden Format]
[Molpro variables]
_NUMVAR=  781.0000000000000    
_AVOGAD= 0.6022136736000000E+24
_BOLTZ= 0.1380658000000000E-22
_CLIGHT=  29979245800.00000    
_EV2006= 0.3674930886769165E-01
_EV= 0.3674932534394180E-01
_ENULL= 0.8854187817000000E-11
_KJOULE= 0.3808798324128737E-03
_KJOULE/MOL= 0.3808798324128737E-03
_CM= 0.4556335267302901E-05
_CM-1= 0.4556335267302901E-05
_DEB2SI= 0.3335641000000000E-29
_AMU2AU=  1822.888390000000    
_KCAL= 0.1593601117815568E-02
_KCAL/MOL= 0.1593601117815568E-02
_KELVIN2006= 0.3166828861084835E-05
_KELVIN= 0.3166814820820034E-05
_JOULE= 0.4359748200000000E-17
_HERTZ2006= 0.1519829850815779E-15
_HERTZ= 0.1519829846011223E-15
_HZ2006= 0.1519829850815779E-15
_HZ= 0.1519829846011223E-15
_JPCAL=  4.184000000000000    
_PLANCK= 0.6626075540000000E-33
_TOA2006= 0.5291772490000000    
_TOA= 0.5291772090000000    
_TOANG2006= 0.5291772490000000    
_TOANG= 0.5291772090000000    
_TORAD= 0.1745329251994330E-01
_TOCM=  219474.6306700000    
_TODEBYE=  2.541580000000000    
_TOEV2006=  27.21139610000000    
_TOE= 0.4803242000000000E-09
_TOEV=  27.21138390000000    
_TOHERTZ2006=  6579683899900000.    
_TOHERTZ=  6579683920700000.    
_TOHZ2006=  6579683899900000.    
_TOHZ=  6579683920700000.    
_TOK2006=  315773.3000000000    
_TOK=  315774.7000000000    
_TOKCAL=  627.5096000000000    
_TOKELVIN2006=  315773.3000000000    
_TOKELVIN=  315774.7000000000    
_TOKJ=  2625.500000000000    
_TOKJOULE=  2625.500000000000    
_TOKG= 0.1660565586000000E-26
_ANG2006=  1.889725988578923    
_ANG=  1.889726131421507    
_ANGSTROM2006=  1.889725988578923    
_ANGSTROM=  1.889726131421507    
_RPAREF=  0.000000000000000    
_RPADISS=  0.000000000000000    
_IGNORE_UNDEF=  2.000000000000000    
_STRICTCHECK=  0.000000000000000    
_SEW_ONEEL=  0.000000000000000    
_CPPDONE=FALSE
_DKROLL_DONE=  0.000000000000000    
_FOCKDONE=TRUE
_GRADONE=FALSE
_HESSDONE=FALSE
_INTDONE=TRUE
_SCFDONE=TRUE
_MODUL_BLOCK=FALSE
_MODUL_CUDA=FALSE
_MODUL_SLATER=FALSE
_MODUL_MRCC=FALSE
_MODUL_NBO6=FALSE
_MODUL_NECI=TRUE
_MODUL_AIMS=TRUE
_MRCC_EXEC=
_FITC_AO_SAVED=FALSE
_FITC_MO_SAVED=FALSE
_SHARED_FS=TRUE
_LSTYP=SEWARD
_INTYP=INTS
_GEOMTYP=ZMAT
_GRADTYP=ALASKA
_DIRECT=FALSE
_DKHO= -1.000000000000000    
_SYNCM=  0.000000000000000    
_BASIS=$BSET
_ZORIENT=  1.000000000000000    
_NELEC=  5.000000000000000    
!SPIN=  1.000000000000000    
_QSDSTEP=  0.000000000000000    
_QSDIRC=  0.000000000000000    
_PROGRAM=HF-SCF
_CPUSTEP= 0.2999999999999997E-01
_SYSSTEP= 0.1000000000000000E-01
_WALLSTEP= 0.3000000000000000E-01
!DFSCF=  0.000000000000000    
!SCSGRD=  0.000000000000000    
_BASINP=  610.0000000000000    
_CPUTOT= 0.3700000000000000    
_CPUSORT= 0.8000000000000002E-01
_SYSSORT= 0.3000000000000000E-01
_WALLSORT= 0.1200000010430813    
_DFTEXFAC=  1.000000000000000    
_DMX=  0.000000000000000    
_DMY=  0.000000000000000    
_DMZ=  0.000000000000000    
_DMX_SCF=  0.000000000000000    
_DMY_SCF=  0.000000000000000    
_DMZ_SCF=  0.000000000000000    
_EHOMO=-0.3099100357401052    
_ELUMO= 0.2169650387431658E-01
_ENERGY= -24.52897511680135    
_ENUC=  0.000000000000000    
_GRADEXFAC=  9999.000000000000    
_GRADMETHOD=  2.000000000000000    
_NMRMETHOD=  0.000000000000000    
!GRID_FREEZE= -1.000000000000000    
_ITERATIONS=  10.00000000000000    
_LASTNELEC=  5.000000000000000    
_LASTSPIN=  1.000000000000000    
_LASTSYM=  5.000000000000000    
_MPP_PROG=  0.000000000000000    
_NPROC_MPP=  1.000000000000000    
_NPROC_MPPX=  1.000000000000000    
_NPROC_SMP=  1.000000000000000    
_NUMSTEP=  0.000000000000000    
_ORBITAL=  2100.200000000000    
_PI=  3.141592653589793    
_SEIG_MIN= 0.6619272401739794E-03
_SEWPROP=TRUE
_STATUS=  1.000000000000000    
_SYSTOT= 0.5000000000000000E-01
_VERSION=  2012001.000000000    
_WALLTOT= 0.4100000000000000    
_DATE=18-Feb-16
_LASTORB=RHF
_MACHINE=Linux-3.2.0-98-generic/sce-chem-c01105(x86_64) 64 bit serial version
_OUTPUT=/home/s1267651/aixrd/molpro2/template1.xml
_PGROUP=D2h
_TIME=14:17:38
_LIBMOL=/usr/local/molpro/molprop_2012_1_Linux_x86_64_i8/lib/
!VIBCNT=  0.000000000000000    
!RGHFCNT=  0.000000000000000    
!SURFREC=  0.000000000000000    
!POLYREC=  0.000000000000000    
!DIPREC=  0.000000000000000    
!VSCFREC=  0.000000000000000    
!VCIREC=  0.000000000000000    
!PVCIREC=  0.000000000000000    
!VMP2REC=  0.000000000000000    
!VMCSCFREC=  0.000000000000000    
!VMRCIREC=  0.000000000000000    
!VIBINFO=  0.000000000000000    
!GAREC=  0.000000000000000    
!SCFORB=  21002.00000000000    
!NEWMOL= -1.000000000000000    
!NEWSYM= -1.000000000000000    
_SLFILES=slscratch
_NGSSTO=  9.000000000000000    
_SIN=SIN
_COS=COS
_TAN=TAN
_ACOS=ACOS
_ASIN=ASIN
_ATAN=ATAN
_COSH=COSH
_SINH=SINH
_TANH=TANH
_ABS=ABS
_MOD=MOD
_ERF=ERF
_REFC=REFC
_ERFC=ERFC
_HYPOT=HYPOT
_J0=J0
_J1=J1
_JN=JN
_GAMMA=GAMMA
_LGAMMA=LGAMMA
_Y0=Y0
_Y1=Y1
_YN=YN
_EXP=EXP
_LOG=LOG
_LOG10=LOG10
_SQRT=SQRT
_INT=INT
_NINT=NINT
_MAX=MAX
_MIN=MIN
_COSMO=  0.000000000000000    
_COSMOIT=  0.000000000000000    
_COSMOES=  0.000000000000000    
_COSMOEDS=  0.000000000000000    
_COSMOEC=  0.000000000000000    
_COSMOEDCORR=  0.000000000000000    
_FEPSI=  1.000000000000000    
_SL_IsMM=  0.000000000000000    
_SL_NSYM=  8.000000000000000    
_SL_System_BitSw=  0.000000000000000    
_SL_Unique_atoms=  0.000000000000000    
_SL_GRAD=  0.000000000000000    
_SL_MAXUPD_Hess=  5.000000000000000    
_SL_N_PRINT_COD=  5.000000000000000    
_SL_PRINT_CODES=  0.000000000000000    
_SL_BasType=  0.000000000000000    
_SL_Energy_Pred=  0.000000000000000    
_SL_New_Coords=  0.000000000000000    
_SL_Total_Nuclea=  0.000000000000000    
_SL_Highest_Mltp=  0.000000000000000    
_SL_Ref_Geom=  0.000000000000000    
_SL_Symmetry_ope=  1.000000000000000    
_SL_agrad=  0.000000000000000    
_SL_GrdMax=  0.000000000000000    
_SL_GrdNorm=  0.000000000000000    
_SL_GrdRMS=  0.000000000000000    
_SL_Hss_Q=  0.000000000000000    
_SL_Hss_X=  0.000000000000000    
_SL_BMxOld=  0.000000000000000    
_SL_KtB=  0.000000000000000    
!LATTICE= -1.000000000000000    
!NEWLATTICE=  0.000000000000000    
!LATGRAD_VAR=FALSE
!SEW_LATTICE=  1.000000000000000    
!LOCAL=  0.000000000000000    
!SAVEDOM= -1.000000000000000    
!RESTDOM= -1.000000000000000    
!SAVEDOM_HF= -1.000000000000000    
!RESTDOM_HF= -1.000000000000000    
!HESSREC=  0.000000000000000    
!FREQREC=  0.000000000000000    
!NMODREC=  0.000000000000000    
!GTASKS=  0.000000000000000    
!HTASKS=  0.000000000000000    
!THRCHG= 0.1000000000000000    
!DEBUG= -1.000000000000000    
!CFIT_CPHF=  0.000000000000000    
!RDOMAUX_CPHF=  3.000000000000000    
!THRAO_CPHF= 0.1000000000000000E-09
!THRMO_CPHF= 0.1000000000000000E-08
!THROV_CPHF= 0.1000000000000000E-11
!THRSW_CPHF= 0.1000000000000000E-09
!THRPROD_CPHF= 0.1000000000000000E-08
!THRAOPR_CPHF= 0.1000000000000000E-11
!CFIT_SCFGRD=  0.000000000000000    
!RDOMAUX_SCFGRD=  5.000000000000000    
!THRAO_SCFGRD= 0.1000000000000000E-09
!THRMO_SCFGRD= 0.1000000000000000E-08
!THROV_SCFGRD= 0.1000000000000000E-11
!THRSW_SCFGRD= 0.1000000000000000E-09
!THRPROD_SCFGRD= 0.1000000000000000E-08
!THRAOPR_SCFGRD= 0.1000000000000000E-11
!LOCFIT_SCF=  0.000000000000000    
!LOCFIT_MP2= -1.000000000000000    
_RIDOM=  0.000000000000000    
!CC2_METHOD=  0.000000000000000    
_BASIS2006=FALSE
_SVDDEL= -1.000000000000000    
_SVDDELA= -1.000000000000000    
_SVDDELP= -1.000000000000000    
_SVDDELF= -1.000000000000000    
_SVDDELS= -1.000000000000000    
_SVDDEL_ABS= -1.000000000000000    
_SVDDELA_ABS= -1.000000000000000    
_SVDDELP_ABS= -1.000000000000000    
_SVDDELF_ABS= -1.000000000000000    
_SVDDELS_ABS= -1.000000000000000    
_MAXBASIS=  0.000000000000000    
!OPT_CONICAL=  0.000000000000000    
!CLEARSP_JGRID=  0.000000000000000    
_4EXT_NDISKS=  1.000000000000000    
!ZMP=  0.000000000000000    
_MAXIT_ZMP=  500.0000000000000    
_MAXDIS_ZMP=  100.0000000000000    
_ACCU_ZMP=  14.00000000000000    
_SHIFTA_ZMP= -100.0000000000000    
!EMBEDFLAG=  1.000000000000000    
!EMBED=FALSE
!EMBED_F12=FALSE
!EMBEDNUC=  0.000000000000000    
_EMBEDENERGY=  0.000000000000000    
_KSPACETIME=  0.000000000000000    
_RSPACETIME=  0.000000000000000    
!EMBED_DFC=FALSE
!NUM_VOIDS=  0.000000000000000    
_IBODY=  0.000000000000000    
_EMBE_TOTAL=  0.000000000000000    
_EMBE_HF=  0.000000000000000    
_EMBE_CORR=  0.000000000000000    
!EDFT=  0.000000000000000    
_IFASTLATGRAD=  0.000000000000000    
_SINDEX=  0.000000000000000    
BSET=AUG-CC-PVQZ
GX1=  0.000000000000000    
GY1=  0.000000000000000    
GZ1=  0.000000000000000    
TITLE=../input/template1.mld
[Atoms] Angs
B     1    5         0.0000000000        0.0000000000        0.0000000000
[GTO]
  1 0
 s   12  1.00
  0.2387000000D+05  0.8799999405D-04
  0.3575000000D+04  0.6869999536D-03
  0.8128000000D+03  0.3599999757D-02
  0.2297000000D+03  0.1494899899D-01
  0.7469000000D+02  0.5143499653D-01
  0.2681000000D+02  0.1433019903D+00
  0.1032000000D+02  0.3009349797D+00
  0.4178000000D+01  0.4035259727D+00
  0.1727000000D+01  0.2253399848D+00
  0.4704000000D+00  0.1540699896D-01
  0.1896000000D+00 -0.3954999733D-02
  0.7394000000D-01  0.1123999924D-02
 s   12  1.00
  0.2387000000D+05 -0.1800000238D-04
  0.3575000000D+04 -0.1390000184D-03
  0.8128000000D+03 -0.7250000957D-03
  0.2297000000D+03 -0.3063000404D-02
  0.7469000000D+02 -0.1058100140D-01
  0.2681000000D+02 -0.3136500414D-01
  0.1032000000D+02 -0.7101200938D-01
  0.4178000000D+01 -0.1321030174D+00
  0.1727000000D+01 -0.1230720162D+00
  0.4704000000D+00  0.2618190346D+00
  0.1896000000D+00  0.5866620775D+00
  0.7394000000D-01  0.2904940384D+00
 s   12  1.00
  0.2387000000D+05  0.0000000000D+00
  0.3575000000D+04  0.0000000000D+00
  0.8128000000D+03  0.0000000000D+00
  0.2297000000D+03  0.0000000000D+00
  0.7469000000D+02  0.0000000000D+00
  0.2681000000D+02  0.0000000000D+00
  0.1032000000D+02  0.0000000000D+00
  0.4178000000D+01  0.0000000000D+00
  0.1727000000D+01  0.0000000000D+00
  0.4704000000D+00  0.1000000000D+01
  0.1896000000D+00  0.0000000000D+00
  0.7394000000D-01  0.0000000000D+00
 s   12  1.00
  0.2387000000D+05  0.0000000000D+00
  0.3575000000D+04  0.0000000000D+00
  0.8128000000D+03  0.0000000000D+00
  0.2297000000D+03  0.0000000000D+00
  0.7469000000D+02  0.0000000000D+00
  0.2681000000D+02  0.0000000000D+00
  0.1032000000D+02  0.0000000000D+00
  0.4178000000D+01  0.0000000000D+00
  0.1727000000D+01  0.0000000000D+00
  0.4704000000D+00  0.0000000000D+00
  0.1896000000D+00  0.1000000000D+01
  0.7394000000D-01  0.0000000000D+00
 s   12  1.00
  0.2387000000D+05  0.0000000000D+00
  0.3575000000D+04  0.0000000000D+00
  0.8128000000D+03  0.0000000000D+00
  0.2297000000D+03  0.0000000000D+00
  0.7469000000D+02  0.0000000000D+00
  0.2681000000D+02  0.0000000000D+00
  0.1032000000D+02  0.0000000000D+00
  0.4178000000D+01  0.0000000000D+00
  0.1727000000D+01  0.0000000000D+00
  0.4704000000D+00  0.0000000000D+00
  0.1896000000D+00  0.0000000000D+00
  0.7394000000D-01  0.1000000000D+01
 s    1  1.00
  0.2721000000D-01  0.1000000000D+01
 p    6  1.00
  0.2226000000D+02  0.5094999478D-02
  0.5058000000D+01  0.3320599660D-01
  0.1487000000D+01  0.1323139864D+00
  0.5071000000D+00  0.3318179660D+00
  0.1812000000D+00  0.4720629516D+00
  0.6463000000D-01  0.2579789736D+00
 p    6  1.00
  0.2226000000D+02  0.0000000000D+00
  0.5058000000D+01  0.0000000000D+00
  0.1487000000D+01  0.0000000000D+00
  0.5071000000D+00  0.1000000000D+01
  0.1812000000D+00  0.0000000000D+00
  0.6463000000D-01  0.0000000000D+00
 p    6  1.00
  0.2226000000D+02  0.0000000000D+00
  0.5058000000D+01  0.0000000000D+00
  0.1487000000D+01  0.0000000000D+00
  0.5071000000D+00  0.0000000000D+00
  0.1812000000D+00  0.1000000000D+01
  0.6463000000D-01  0.0000000000D+00
 p    6  1.00
  0.2226000000D+02  0.0000000000D+00
  0.5058000000D+01  0.0000000000D+00
  0.1487000000D+01  0.0000000000D+00
  0.5071000000D+00  0.0000000000D+00
  0.1812000000D+00  0.0000000000D+00
  0.6463000000D-01  0.1000000000D+01
 p    1  1.00
  0.1878000000D-01  0.1000000000D+01
 d    1  1.00
  0.1110000000D+01  0.1000000000D+01
 d    1  1.00
  0.4020000000D+00  0.1000000000D+01
 d    1  1.00
  0.1450000000D+00  0.1000000000D+01
 d    1  1.00
  0.4660000000D-01  0.1000000000D+01
 f    1  1.00
  0.8820000000D+00  0.1000000000D+01
 f    1  1.00
  0.3110000000D+00  0.1000000000D+01
 f    1  1.00
  0.1130000000D+00  0.1000000000D+01
 g    1  1.00
  0.6730000000D+00  0.1000000000D+01
 g    1  1.00
  0.2730000000D+00  0.1000000000D+01
 
 
[MO]
 Sym=      1.1
 Ene=      -7.6955
 Spin= Alpha
 Occup=    2.000000
1 1.00012365635249
2 0.000486832289064
3 0.000144357725224
4 -0.000935952756476
5 0.000683467548000
6 -0.000499703234721
7 0.0
8 0.0
9 0.0
10 0.0
11 0.0
12 0.0
13 0.0
14 0.0
15 0.0
16 0.0
17 0.0
18 0.0
19 0.0
20 0.0
21 0.0
22 0.000063477353062
23 0.000063477353062
24 -0.000126954706125
25 0.0
26 0.0
27 0.0
28 -0.000297015118112
29 -0.000297015118112
30 0.000594030236225
31 0.0
32 0.0
33 0.0
34 0.000036231624555
35 0.000036231624555
36 -0.000072463249110
37 0.0
38 0.0
39 0.0
40 -0.000023683041312
41 -0.000023683041312
42 0.000047366082623
43 0.0
44 0.0
45 0.0
46 0.0
47 0.0
48 0.0
49 0.0
50 0.0
51 0.0
52 0.0
53 0.0
54 0.0
55 0.0
56 0.0
57 0.0
58 0.0
59 0.0
60 0.0
61 0.0
62 0.0
63 0.0
64 0.0
65 0.0
66 0.0
67 0.0
68 0.0
69 0.0
70 0.0
71 0.0
72 0.0
73 0.0
74 0.0
75 0.0
76 -0.000000421309352
77 -0.000000421309352
78 -0.000001123491604
79 0.0
80 0.0
81 0.0
82 0.0
83 0.0
84 0.0
85 -0.000000246693496
86 0.000000986773985
87 0.000000986773985
88 0.0
89 0.0
90 0.0
91 -0.000000040959353
92 -0.000000040959353
93 -0.000000109224943
94 0.0
95 0.0
96 0.0
97 0.0
98 0.0
99 0.0
100 -0.000000023983342
101 0.000000095933366
102 0.000000095933366
103 0.0
104 0.0
105 0.0
 Sym=      2.1
 Ene=      -0.4948
 Spin= Alpha
 Occup=    2.000000
1 -0.000176836786633
2 0.99934834472160
3 -0.000483849194203
4 0.002772652553200
5 -0.003791367245669
6 0.002760715918198
7 0.0
8 0.0
9 0.0
10 0.0
11 0.0
12 0.0
13 0.0
14 0.0
15 0.0
16 0.0
17 0.0
18 0.0
19 0.0
20 0.0
21 0.0
22 -0.000658619111111
23 -0.000658619111111
24 0.001317238222221
25 0.0
26 0.0
27 0.0
28 0.000299546370086
29 0.000299546370086
30 -0.000599092740173
31 0.0
32 0.0
33 0.0
34 -0.002870884492603
35 -0.002870884492603
36 0.005741768985205
37 0.0
38 0.0
39 0.0
40 -0.001069615031380
41 -0.001069615031380
42 0.002139230062760
43 0.0
44 0.0
45 0.0
46 0.0
47 0.0
48 0.0
49 0.0
50 0.0
51 0.0
52 0.0
53 0.0
54 0.0
55 0.0
56 0.0
57 0.0
58 0.0
59 0.0
60 0.0
61 0.0
62 0.0
63 0.0
64 0.0
65 0.0
66 0.0
67 0.0
68 0.0
69 0.0
70 0.0
71 0.0
72 0.0
73 0.0
74 0.0
75 0.0
76 -0.000001646259728
77 -0.000001646259728
78 -0.000004390025942
79 0.0
80 0.0
81 0.0
82 0.0
83 0.0
84 0.0
85 -0.000000963950993
86 0.000003855803973
87 0.000003855803973
88 0.0
89 0.0
90 0.0
91 -0.000021209026320
92 -0.000021209026320
93 -0.000056557403520
94 0.0
95 0.0
96 0.0
97 0.0
98 0.0
99 0.0
100 -0.000012418734200
101 0.000049674936799
102 0.000049674936799
103 0.0
104 0.0
105 0.0
 Sym=      1.5
 Ene=      -0.3099
 Spin= Alpha
 Occup=    1.000000
1 0.0
2 0.0
3 0.0
4 0.0
5 0.0
6 0.0
7 0.0
8 0.0
9 1.00017064578101
10 0.0
11 0.0
12 -0.000780184458093
13 0.0
14 0.0
15 0.001763685365645
16 0.0
17 0.0
18 -0.004461072280304
19 0.0
20 0.0
21 0.006413459999939
22 0.0
23 0.0
24 0.0
25 0.0
26 0.0
27 0.0
28 0.0
29 0.0
30 0.0
31 0.0
32 0.0
33 0.0
34 0.0
35 0.0
36 0.0
37 0.0
38 0.0
39 0.0
40 0.0
41 0.0
42 0.0
43 0.0
44 0.0
45 0.0
46 0.0
47 0.0
48 -0.000035636644919
49 0.0
50 0.0
51 0.000023905788159
52 0.0
53 0.0
54 0.000023905788159
55 0.0
56 0.0
57 0.0
58 -0.000107675480706
59 0.0
60 0.0
61 0.000072230908311
62 0.0
63 0.0
64 0.000072230908311
65 0.0
66 0.0
67 0.0
68 0.000105075711909
69 0.0
70 0.0
71 -0.000070486930384
72 0.0
73 0.0
74 -0.000070486930384
75 0.0
76 0.0
77 0.0
78 0.0
79 0.0
80 0.0
81 0.0
82 0.0
83 0.0
84 0.0
85 0.0
86 0.0
87 0.0
88 0.0
89 0.0
90 0.0
91 0.0
92 0.0
93 0.0
94 0.0
95 0.0
96 0.0
97 0.0
98 0.0
99 0.0
100 0.0
101 0.0
102 0.0
103 0.0
104 0.0
105 0.0
 Sym=      1.2
 Ene=       0.0217
 Spin= Alpha
 Occup=    0.000000
1 0.0
2 0.0
3 0.0
4 0.0
5 0.0
6 0.0
7 0.42542419014542
8 0.0
9 0.0
10 -0.012982792213527
11 0.0
12 0.0
13 0.043133541725374
14 0.0
15 0.0
16 0.049832333040464
17 0.0
18 0.0
19 0.71051586847768
20 0.0
21 0.0
22 0.0
23 0.0
24 0.0
25 0.0
26 0.0
27 0.0
28 0.0
29 0.0
30 0.0
31 0.0
32 0.0
33 0.0
34 0.0
35 0.0
36 0.0
37 0.0
38 0.0
39 0.0
40 0.0
41 0.0
42 0.0
43 0.0
44 0.0
45 0.0
46 -0.000016333216802
47 0.0
48 0.0
49 -0.000007304436612
50 0.0
51 0.0
52 0.000029217746449
53 0.0
54 0.0
55 0.0
56 -0.000644294306190
57 0.0
58 0.0
59 -0.000288137173232
60 0.0
61 0.0
62 0.001152548692926
63 0.0
64 0.0
65 0.0
66 0.002472566485256
67 0.0
68 0.0
69 0.001105765347984
70 0.0
71 0.0
72 -0.004423061391935
73 0.0
74 0.0
75 0.0
76 0.0
77 0.0
78 0.0
79 0.0
80 0.0
81 0.0
82 0.0
83 0.0
84 0.0
85 0.0
86 0.0
87 0.0
88 0.0
89 0.0
90 0.0
91 0.0
92 0.0
93 0.0
94 0.0
95 0.0
96 0.0
97 0.0
98 0.0
99 0.0
100 0.0
101 0.0
102 0.0
103 0.0
104 0.0
105 0.0
 Sym=      1.3
 Ene=       0.0217
 Spin= Alpha
 Occup=    0.000000
1 0.0
2 0.0
3 0.0
4 0.0
5 0.0
6 0.0
7 0.0
8 0.42542419014542
9 0.0
10 0.0
11 -0.012982792213527
12 0.0
13 0.0
14 0.043133541725374
15 0.0
16 0.0
17 0.049832333040464
18 0.0
19 0.0
20 0.71051586847768
21 0.0
22 0.0
23 0.0
24 0.0
25 0.0
26 0.0
27 0.0
28 0.0
29 0.0
30 0.0
31 0.0
32 0.0
33 0.0
34 0.0
35 0.0
36 0.0
37 0.0
38 0.0
39 0.0
40 0.0
41 0.0
42 0.0
43 0.0
44 0.0
45 0.0
46 0.0
47 -0.000016333216802
48 0.0
49 0.0
50 -0.000007304436612
51 0.0
52 0.0
53 0.000029217746449
54 0.0
55 0.0
56 0.0
57 -0.000644294306190
58 0.0
59 0.0
60 -0.000288137173232
61 0.0
62 0.0
63 0.001152548692926
64 0.0
65 0.0
66 0.0
67 0.002472566485256
68 0.0
69 0.0
70 0.001105765347984
71 0.0
72 0.0
73 -0.004423061391935
74 0.0
75 0.0
76 0.0
77 0.0
78 0.0
79 0.0
80 0.0
81 0.0
82 0.0
83 0.0
84 0.0
85 0.0
86 0.0
87 0.0
88 0.0
89 0.0
90 0.0
91 0.0
92 0.0
93 0.0
94 0.0
95 0.0
96 0.0
97 0.0
98 0.0
99 0.0
100 0.0
101 0.0
102 0.0
103 0.0
104 0.0
105 0.0
 Sym=      2.5
 Ene=       0.0511
 Spin= Alpha
 Occup=    0.000000
1 0.0
2 0.0
3 0.0
4 0.0
5 0.0
6 0.0
7 0.0
8 0.0
9 -0.16043216478080
10 0.0
11 0.0
12 -0.036801447120931
13 0.0
14 0.0
15 0.096730331679915
16 0.0
17 0.0
18 -0.40237401182425
19 0.0
20 0.0
21 1.21387886516108
22 0.0
23 0.0
24 0.0
25 0.0
26 0.0
27 0.0
28 0.0
29 0.0
30 0.0
31 0.0
32 0.0
33 0.0
34 0.0
35 0.0
36 0.0
37 0.0
38 0.0
39 0.0
40 0.0
41 0.0
42 0.0
43 0.0
44 0.0
45 0.0
46 0.0
47 0.0
48 -0.000151426486927
49 0.0
50 0.0
51 0.000101579975509
52 0.0
53 0.0
54 0.000101579975509
55 0.0
56 0.0
57 0.0
58 0.001574165691955
59 0.0
60 0.0
61 -0.001055982448518
62 0.0
63 0.0
64 -0.001055982448518
65 0.0
66 0.0
67 0.0
68 -0.004333405418852
69 0.0
70 0.0
71 0.002906936727186
72 0.0
73 0.0
74 0.002906936727186
75 0.0
76 0.0
77 0.0
78 0.0
79 0.0
80 0.0
81 0.0
82 0.0
83 0.0
84 0.0
85 0.0
86 0.0
87 0.0
88 0.0
89 0.0
90 0.0
91 0.0
92 0.0
93 0.0
94 0.0
95 0.0
96 0.0
97 0.0
98 0.0
99 0.0
100 0.0
101 0.0
102 0.0
103 0.0
104 0.0
105 0.0
 Sym=      3.1
 Ene=       0.0556
 Spin= Alpha
 Occup=    0.000000
1 -0.026227290602790
2 -0.35066208001758
3 -0.086352437139075
4 0.45448418398103
5 -1.27724197574377
6 1.81108409977944
7 0.0
8 0.0
9 0.0
10 0.0
11 0.0
12 0.0
13 0.0
14 0.0
15 0.0
16 0.0
17 0.0
18 0.0
19 0.0
20 0.0
21 0.0
22 0.000315190397448
23 0.000315190397448
24 -0.000630380794896
25 0.0
26 0.0
27 0.0
28 0.001295659924471
29 0.001295659924471
30 -0.002591319848942
31 0.0
32 0.0
33 0.0
34 -0.003028574401012
35 -0.003028574401013
36 0.006057148802026
37 0.0
38 0.0
39 0.0
40 0.018536915497022
41 0.018536915497026
42 -0.037073830994048
43 0.0
44 0.0
45 0.0
46 0.0
47 0.0
48 0.0
49 0.0
50 0.0
51 0.0
52 0.0
53 0.0
54 0.0
55 0.0
56 0.0
57 0.0
58 0.0
59 0.0
60 0.0
61 0.0
62 0.0
63 0.0
64 0.0
65 0.0
66 0.0
67 0.0
68 0.0
69 0.0
70 0.0
71 0.0
72 0.0
73 0.0
74 0.0
75 0.0
76 -0.000005404572564
77 -0.000005404572564
78 -0.000014412193504
79 0.0
80 0.0
81 0.0
82 0.0
83 0.0
84 0.0
85 -0.000003164593656
86 0.000012658374622
87 0.000012658374622
88 0.0
89 0.0
90 0.0
91 0.000033210413085
92 0.000033210413086
93 0.000088561101561
94 0.0
95 0.0
96 0.0
97 0.0
98 0.0
99 0.0
100 0.000019446026732
101 -0.000077784106926
102 -0.000077784106927
103 0.0
104 0.0
105 0.0
 Sym=      2.3
 Ene=       0.0754
 Spin= Alpha
 Occup=    0.000000
1 0.0
2 0.0
3 0.0
4 0.0
5 0.0
6 0.0
7 0.0
8 -0.49705857310062
9 0.0
10 0.0
11 -0.045262072416309
12 0.0
13 0.0
14 0.11028164254826
15 0.0
16 0.0
17 -0.74412673975386
18 0.0
19 0.0
20 1.04499941550834
21 0.0
22 0.0
23 0.0
24 0.0
25 0.0
26 0.0
27 0.0
28 0.0
29 0.0
30 0.0
31 0.0
32 0.0
33 0.0
34 0.0
35 0.0
36 0.0
37 0.0
38 0.0
39 0.0
40 0.0
41 0.0
42 0.0
43 0.0
44 0.0
45 0.0
46 0.0
47 0.000143262604586
48 0.0
49 0.0
50 0.000064068984497
51 0.0
52 0.0
53 -0.000256275937990
54 0.0
55 0.0
56 0.0
57 -0.000343247253836
58 0.0
59 0.0
60 -0.000153504838533
61 0.0
62 0.0
63 0.000614019354134
64 0.0
65 0.0
66 0.0
67 -0.000073143814520
68 0.0
69 0.0
70 -0.000032710908280
71 0.0
72 0.0
73 0.000130843633120
74 0.0
75 0.0
76 0.0
77 0.0
78 0.0
79 0.0
80 0.0
81 0.0
82 0.0
83 0.0
84 0.0
85 0.0
86 0.0
87 0.0
88 0.0
89 0.0
90 0.0
91 0.0
92 0.0
93 0.0
94 0.0
95 0.0
96 0.0
97 0.0
98 0.0
99 0.0
100 0.0
101 0.0
102 0.0
103 0.0
104 0.0
105 0.0
 Sym=      2.2
 Ene=       0.0754
 Spin= Alpha
 Occup=    0.000000
1 0.0
2 0.0
3 0.0
4 0.0
5 0.0
6 0.0
7 -0.49705857310062
8 0.0
9 0.0
10 -0.045262072416309
11 0.0
12 0.0
13 0.11028164254827
14 0.0
15 0.0
16 -0.74412673975387
17 0.0
18 0.0
19 1.04499941550834
20 0.0
21 0.0
22 0.0
23 0.0
24 0.0
25 0.0
26 0.0
27 0.0
28 0.0
29 0.0
30 0.0
31 0.0
32 0.0
33 0.0
34 0.0
35 0.0
36 0.0
37 0.0
38 0.0
39 0.0
40 0.0
41 0.0
42 0.0
43 0.0
44 0.0
45 0.0
46 0.000143262604586
47 0.0
48 0.0
49 0.000064068984497
50 0.0
51 0.0
52 -0.000256275937990
53 0.0
54 0.0
55 0.0
56 -0.000343247253836
57 0.0
58 0.0
59 -0.000153504838533
60 0.0
61 0.0
62 0.000614019354134
63 0.0
64 0.0
65 0.0
66 -0.000073143814520
67 0.0
68 0.0
69 -0.000032710908280
70 0.0
71 0.0
72 0.000130843633120
73 0.0
74 0.0
75 0.0
76 0.0
77 0.0
78 0.0
79 0.0
80 0.0
81 0.0
82 0.0
83 0.0
84 0.0
85 0.0
86 0.0
87 0.0
88 0.0
89 0.0
90 0.0
91 0.0
92 0.0
93 0.0
94 0.0
95 0.0
96 0.0
97 0.0
98 0.0
99 0.0
100 0.0
101 0.0
102 0.0
103 0.0
104 0.0
105 0.0
 Sym=      1.4
 Ene=       0.1453
 Spin= Alpha
 Occup=    0.000000
1 0.0
2 0.0
3 0.0
4 0.0
5 0.0
6 0.0
7 0.0
8 0.0
9 0.0
10 0.0
11 0.0
12 0.0
13 0.0
14 0.0
15 0.0
16 0.0
17 0.0
18 0.0
19 0.0
20 0.0
21 0.0
22 0.0
23 0.0
24 0.0
25 -0.010424493199679
26 0.0
27 0.0
28 0.0
29 0.0
30 0.0
31 0.067867601907376
32 0.0
33 0.0
34 0.0
35 0.0
36 0.0
37 -0.19116804272719
38 0.0
39 0.0
40 0.0
41 0.0
42 0.0
43 1.09301235057800
44 0.0
45 0.0
46 0.0
47 0.0
48 0.0
49 0.0
50 0.0
51 0.0
52 0.0
53 0.0
54 0.0
55 0.0
56 0.0
57 0.0
58 0.0
59 0.0
60 0.0
61 0.0
62 0.0
63 0.0
64 0.0
65 0.0
66 0.0
67 0.0
68 0.0
69 0.0
70 0.0
71 0.0
72 0.0
73 0.0
74 0.0
75 0.0
76 0.0
77 0.0
78 0.0
79 -0.000162136867307
80 0.0
81 -0.000162136867307
82 0.0
83 0.0
84 0.0
85 0.0
86 0.0
87 0.0
88 0.0
89 0.0
90 0.000435058868349
91 0.0
92 0.0
93 0.0
94 0.000739080233590
95 0.0
96 0.000739080233590
97 0.0
98 0.0
99 0.0
100 0.0
101 0.0
102 0.0
103 0.0
104 0.0
105 -0.001983160371760
 Sym=      4.1
 Ene=       0.1453
 Spin= Alpha
 Occup=    0.000000
1 0.000000000000000
2 -0.000000000000000
3 -0.000000000000002
4 0.000000000000005
5 -0.000000000000010
6 0.000000000000008
7 0.0
8 0.0
9 0.0
10 0.0
11 0.0
12 0.0
13 0.0
14 0.0
15 0.0
16 0.0
17 0.0
18 0.0
19 0.0
20 0.0
21 0.0
22 -0.009027875932403
23 0.009027875932403
24 -0.000000000000000
25 0.0
26 0.0
27 0.0
28 0.058775067345498
29 -0.058775067345501
30 0.000000000000003
31 0.0
32 0.0
33 0.0
34 -0.16555638139289
35 0.16555638139290
36 -0.000000000000007
37 0.0
38 0.0
39 0.0
40 0.94657646225040
41 -0.94657646225044
42 0.000000000000042
43 0.0
44 0.0
45 0.0
46 0.0
47 0.0
48 0.0
49 0.0
50 0.0
51 0.0
52 0.0
53 0.0
54 0.0
55 0.0
56 0.0
57 0.0
58 0.0
59 0.0
60 0.0
61 0.0
62 0.0
63 0.0
64 0.0
65 0.0
66 0.0
67 0.0
68 0.0
69 0.0
70 0.0
71 0.0
72 0.0
73 0.0
74 0.0
75 0.0
76 -0.000214486914612
77 0.000214486914612
78 -0.000000000000000
79 0.0
80 0.0
81 0.0
82 0.0
83 0.0
84 0.0
85 -0.000000000000000
86 0.000376772032110
87 -0.000376772032109
88 0.0
89 0.0
90 0.0
91 0.000977711248492
92 -0.000977711248493
93 -0.000000000000000
94 0.0
95 0.0
96 0.0
97 0.0
98 0.0
99 0.0
100 0.000000000000000
101 -0.001717467261707
102 0.001717467261708
103 0.0
104 0.0
105 0.0
 Sym=      1.6
 Ene=       0.1472
 Spin= Alpha
 Occup=    0.000000
1 0.0
2 0.0
3 0.0
4 0.0
5 0.0
6 0.0
7 0.0
8 0.0
9 0.0
10 0.0
11 0.0
12 0.0
13 0.0
14 0.0
15 0.0
16 0.0
17 0.0
18 0.0
19 0.0
20 0.0
21 0.0
22 0.0
23 0.0
24 0.0
25 0.0
26 -0.009662569562580
27 0.0
28 0.0
29 0.0
30 0.0
31 0.0
32 0.071548392733373
33 0.0
34 0.0
35 0.0
36 0.0
37 0.0
38 -0.17932730263244
39 0.0
40 0.0
41 0.0
42 0.0
43 0.0
44 1.08656916159612
45 0.0
46 0.0
47 0.0
48 0.0
49 0.0
50 0.0
51 0.0
52 0.0
53 0.0
54 0.0
55 0.0
56 0.0
57 0.0
58 0.0
59 0.0
60 0.0
61 0.0
62 0.0
63 0.0
64 0.0
65 0.0
66 0.0
67 0.0
68 0.0
69 0.0
70 0.0
71 0.0
72 0.0
73 0.0
74 0.0
75 0.0
76 0.0
77 0.0
78 0.0
79 0.0
80 -0.000472924969771
81 0.0
82 0.0
83 0.000630566626361
84 0.0
85 0.0
86 0.0
87 0.0
88 0.0
89 -0.000211498476133
90 0.0
91 0.0
92 0.0
93 0.0
94 0.0
95 0.002287422991645
96 0.0
97 0.0
98 -0.003049897322193
99 0.0
100 0.0
101 0.0
102 0.0
103 0.0
104 0.001022966660523
105 0.0
 Sym=      1.7
 Ene=       0.1472
 Spin= Alpha
 Occup=    0.000000
1 0.0
2 0.0
3 0.0
4 0.0
5 0.0
6 0.0
7 0.0
8 0.0
9 0.0
10 0.0
11 0.0
12 0.0
13 0.0
14 0.0
15 0.0
16 0.0
17 0.0
18 0.0
19 0.0
20 0.0
21 0.0
22 0.0
23 0.0
24 0.0
25 0.0
26 0.0
27 -0.009662569562580
28 0.0
29 0.0
30 0.0
31 0.0
32 0.0
33 0.071548392733373
34 0.0
35 0.0
36 0.0
37 0.0
38 0.0
39 -0.17932730263244
40 0.0
41 0.0
42 0.0
43 0.0
44 0.0
45 1.08656916159612
46 0.0
47 0.0
48 0.0
49 0.0
50 0.0
51 0.0
52 0.0
53 0.0
54 0.0
55 0.0
56 0.0
57 0.0
58 0.0
59 0.0
60 0.0
61 0.0
62 0.0
63 0.0
64 0.0
65 0.0
66 0.0
67 0.0
68 0.0
69 0.0
70 0.0
71 0.0
72 0.0
73 0.0
74 0.0
75 0.0
76 0.0
77 0.0
78 0.0
79 0.0
80 0.0
81 0.0
82 -0.000472924969771
83 0.0
84 0.000630566626361
85 0.0
86 0.0
87 0.0
88 -0.000211498476133
89 0.0
90 0.0
91 0.0
92 0.0
93 0.0
94 0.0
95 0.0
96 0.0
97 0.002287422991645
98 0.0
99 -0.003049897322193
100 0.0
101 0.0
102 0.0
103 0.001022966660523
104 0.0
105 0.0
 Sym=      5.1
 Ene=       0.1480
 Spin= Alpha
 Occup=    0.000000
1 -0.002267642511506
2 -0.022150148855170
3 -0.008771687706257
4 0.038626007807037
5 -0.063434903063823
6 0.070016805403031
7 0.0
8 0.0
9 0.0
10 0.0
11 0.0
12 0.0
13 0.0
14 0.0
15 0.0
16 0.0
17 0.0
18 0.0
19 0.0
20 0.0
21 0.0
22 0.004723176355530
23 0.004723176355529
24 -0.009446352711059
25 0.0
26 0.0
27 0.0
28 -0.036326127563059
29 -0.036326127563054
30 0.072652255126113
31 0.0
32 0.0
33 0.0
34 0.087767721494674
35 0.087767721494661
36 -0.17553544298934
37 0.0
38 0.0
39 0.0
40 -0.54193553407048
41 -0.54193553407040
42 1.08387106814088
43 0.0
44 0.0
45 0.0
46 0.0
47 0.0
48 0.0
49 0.0
50 0.0
51 0.0
52 0.0
53 0.0
54 0.0
55 0.0
56 0.0
57 0.0
58 0.0
59 0.0
60 0.0
61 0.0
62 0.0
63 0.0
64 0.0
65 0.0
66 0.0
67 0.0
68 0.0
69 0.0
70 0.0
71 0.0
72 0.0
73 0.0
74 0.0
75 0.0
76 0.000214696129172
77 0.000214696129172
78 0.000572523011126
79 0.0
80 0.0
81 0.0
82 0.0
83 0.0
84 0.0
85 0.000125713180873
86 -0.000502852723491
87 -0.000502852723491
88 0.0
89 0.0
90 0.0
91 -0.001057476364420
92 -0.001057476364420
93 -0.002819936971787
94 0.0
95 0.0
96 0.0
97 0.0
98 0.0
99 0.0
100 -0.000619194756708
101 0.002476779026830
102 0.002476779026830
103 0.0
104 0.0
105 0.0
 Sym=      3.5
 Ene=       0.2731
 Spin= Alpha
 Occup=    0.000000
1 0.0
2 0.0
3 0.0
4 0.0
5 0.0
6 0.0
7 0.0
8 0.0
9 -0.79876072839015
10 0.0
11 0.0
12 0.19478726429611
13 0.0
14 0.0
15 -0.65076238057921
16 0.0
17 0.0
18 2.04196162755114
19 0.0
20 0.0
21 -0.71003612795427
22 0.0
23 0.0
24 0.0
25 0.0
26 0.0
27 0.0
28 0.0
29 0.0
30 0.0
31 0.0
32 0.0
33 0.0
34 0.0
35 0.0
36 0.0
37 0.0
38 0.0
39 0.0
40 0.0
41 0.0
42 0.0
43 0.0
44 0.0
45 0.0
46 0.0
47 0.0
48 -0.000377545090137
49 0.0
50 0.0
51 0.000253264945836
52 0.0
53 0.0
54 0.000253264945836
55 0.0
56 0.0
57 0.0
58 0.007117397542637
59 0.0
60 0.0
61 -0.004774495418468
62 0.0
63 0.0
64 -0.004774495418468
65 0.0
66 0.0
67 0.0
68 -0.031370453982741
69 0.0
70 0.0
71 0.021043940277131
72 0.0
73 0.0
74 0.021043940277132
75 0.0
76 0.0
77 0.0
78 0.0
79 0.0
80 0.0
81 0.0
82 0.0
83 0.0
84 0.0
85 0.0
86 0.0
87 0.0
88 0.0
89 0.0
90 0.0
91 0.0
92 0.0
93 0.0
94 0.0
95 0.0
96 0.0
97 0.0
98 0.0
99 0.0
100 0.0
101 0.0
102 0.0
103 0.0
104 0.0
105 0.0
 Sym=      3.3
 Ene=       0.3110
 Spin= Alpha
 Occup=    0.000000
1 0.0
2 0.0
3 0.0
4 0.0
5 0.0
6 0.0
7 0.0
8 -0.94591142422622
9 0.0
10 0.0
11 0.21957701086959
12 0.0
13 0.0
14 -0.78496154282802
15 0.0
16 0.0
17 1.96767160446849
18 0.0
19 0.0
20 -0.62468845265100
21 0.0
22 0.0
23 0.0
24 0.0
25 0.0
26 0.0
27 0.0
28 0.0
29 0.0
30 0.0
31 0.0
32 0.0
33 0.0
34 0.0
35 0.0
36 0.0
37 0.0
38 0.0
39 0.0
40 0.0
41 0.0
42 0.0
43 0.0
44 0.0
45 0.0
46 0.0
47 0.000435575454526
48 0.0
49 0.0
50 0.000194795265130
51 0.0
52 0.0
53 -0.000779181060521
54 0.0
55 0.0
56 0.0
57 -0.004501067356841
58 0.0
59 0.0
60 -0.002012938516240
61 0.0
62 0.0
63 0.008051754064961
64 0.0
65 0.0
66 0.0
67 0.019052533417378
68 0.0
69 0.0
70 0.008520551972969
71 0.0
72 0.0
73 -0.034082207891876
74 0.0
75 0.0
76 0.0
77 0.0
78 0.0
79 0.0
80 0.0
81 0.0
82 0.0
83 0.0
84 0.0
85 0.0
86 0.0
87 0.0
88 0.0
89 0.0
90 0.0
91 0.0
92 0.0
93 0.0
94 0.0
95 0.0
96 0.0
97 0.0
98 0.0
99 0.0
100 0.0
101 0.0
102 0.0
103 0.0
104 0.0
105 0.0
 Sym=      3.2
 Ene=       0.3110
 Spin= Alpha
 Occup=    0.000000
1 0.0
2 0.0
3 0.0
4 0.0
5 0.0
6 0.0
7 -0.94591142422622
8 0.0
9 0.0
10 0.21957701086959
11 0.0
12 0.0
13 -0.78496154282803
14 0.0
15 0.0
16 1.96767160446849
17 0.0
18 0.0
19 -0.62468845265100
20 0.0
21 0.0
22 0.0
23 0.0
24 0.0
25 0.0
26 0.0
27 0.0
28 0.0
29 0.0
30 0.0
31 0.0
32 0.0
33 0.0
34 0.0
35 0.0
36 0.0
37 0.0
38 0.0
39 0.0
40 0.0
41 0.0
42 0.0
43 0.0
44 0.0
45 0.0
46 0.000435575454527
47 0.0
48 0.0
49 0.000194795265130
50 0.0
51 0.0