
 Primary working directories    : /tmp/thomas
 Secondary working directories  : /tmp/thomas
 Wavefunction directory         : /home/thomas/wfu/
 Main file repository           : /tmp/thomas/

 SHA1      : a50ba034cb0e600624eb5c2d7633d980c5556ed7
 NAME      : 2012.1.35
 ARCHNAME  : Linux/x86_64
 FC        : /usr/bin/gfortran
 FCVERSION : 4.8.4
 BLASLIB   : 
 id        : edinburgh

 Nodes              nprocs
 thomas-Latitude-XT2    1

 Using customized tuning parameters: mindgm=1; mindgv=20; mindgc=4; mindgr=1; noblas=0; minvec=7
 default implementation of scratch files=df  

 ***,H2
 
                                                                                 ! basis set,
 $bset=6-31G
 basis=$bset
 
 geometry={
                                                                                 ! geometry here,
 H 0.0 0.0 -1.0
 H 0.0 0.0 1.0
 }
 
 hf
 optg
 freq
 
 $title='../input/h2_$bset_freq.mld'
 put,molden,$title
 

 Variables initialized (782), CPU time= 0.01 sec
 Commands  initialized (547), CPU time= 0.02 sec, 517 directives.
 Default parameters read. Elapsed time= 0.06 sec

 Checking input...
 Passed
1


                                         ***  PROGRAM SYSTEM MOLPRO  ***
                         Copyright, University College Cardiff Consultants Limited, 2008

                                    Version 2012.1 linked Feb 20 2016 17:12:56


 **********************************************************************************************************************************
 LABEL *   H2                                                                            
 Linux-3.13.0-77-generic/thomas-Latitude-XT2(x86_64) 64 bit serial version               DATE: 20-Feb-16          TIME: 17:20:16  
 **********************************************************************************************************************************

 SHA1:             a50ba034cb0e600624eb5c2d7633d980c5556ed7
 **********************************************************************************************************************************
 SETTING BSET           =    6-31G

 Variable memory set to    8000000 words,  buffer space   230000 words

 SETTING BASIS          =    $BSET

Geometry recognized as XYZ



 Current variables in basis input:

 Set= 1  $BSET               =  6-31G

 Recomputing integrals since basis changed


 Using spherical harmonics

 Library entry H      S 6-31G                selected for orbital group  1

1PROGRAM * SEWARD (Integral evaluation for generally contracted gaussian basis sets)     Author: Roland Lindh, 1990

 Geometry written to block  1 of record 700


 Point group  D2h 



 ATOMIC COORDINATES

 NR  ATOM    CHARGE       X              Y              Z

   1  H       1.00    0.000000000    0.000000000   -1.889726131
   2  H       1.00    0.000000000    0.000000000    1.889726131

 NUCLEAR CHARGE:                    2
 NUMBER OF PRIMITIVE AOS:           8
 NUMBER OF SYMMETRY AOS:            8
 NUMBER OF CONTRACTIONS:            4   (   2Ag  +   0B3u +   0B2u +   0B1g +   2B1u +   0B2g +   0B3g +   0Au  )
 NUMBER OF CORE ORBITALS:           0   (   0Ag  +   0B3u +   0B2u +   0B1g +   0B1u +   0B2g +   0B3g +   0Au  )
 NUMBER OF VALENCE ORBITALS:        2   (   1Ag  +   0B3u +   0B2u +   0B1g +   1B1u +   0B2g +   0B3g +   0Au  )


 NUCLEAR REPULSION ENERGY    0.26458860


 Eigenvalues of metric

         1 0.387E+00 0.194E+01
         5 0.260E+00 0.142E+01


 Contracted 2-electron integrals neglected if value below      1.0D-11
 AO integral compression algorithm  1   Integral accuracy      1.0D-11

     0.262 MB (compressed) written to integral file (100.0%)


 NUMBER OF SORTED TWO-ELECTRON INTEGRALS:         39.     BUFFER LENGTH:  32768
 NUMBER OF SEGMENTS:   1  SEGMENT LENGTH:         39      RECORD LENGTH: 524288

 Memory used in sort:       0.56 MW

 SORT1 READ         128. AND WROTE          39. INTEGRALS IN      1 RECORDS. CPU TIME:     0.00 SEC, REAL TIME:     0.01 SEC
 SORT2 READ          39. AND WROTE          39. INTEGRALS IN      1 RECORDS. CPU TIME:     0.00 SEC, REAL TIME:     0.01 SEC

 FILE SIZES:   FILE 1:     7.8 MBYTE,  FILE 4:     4.2 MBYTE,   TOTAL:     12.0 MBYTE

 OPERATOR DM      FOR CENTER  0  COORDINATES:    0.000000    0.000000    0.000000


 **********************************************************************************************************************************
 DATASETS  * FILE   NREC   LENGTH (MB)   RECORD NAMES
              1      19        7.51       500      610      700      900      950      970     1000      129      960     1100   
                                          VAR    BASINP    GEOM    SYMINP    ZMAT    AOBASIS   BASIS     P2S    ABASIS      S 
                                         1400     1410     1200     1210     1080     1600     1650     1300     1700   
                                           T        V       H0       H01     AOSYM     SMH    MOLCAS    ERIS     OPER   

 PROGRAMS   *        TOTAL       INT
 CPU TIMES  *         0.22      0.04
 REAL TIME  *         0.60 SEC
 DISK USED  *        12.28 MB      
 **********************************************************************************************************************************

1PROGRAM * RHF-SCF (CLOSED SHELL)       Authors: W. Meyer, H.-J. Werner


 NUMBER OF ELECTRONS:       1+    1-
 CONVERGENCE THRESHOLDS:    1.00E-06 (Density)    1.00E-07 (Energy)
 MAX. NUMBER OF ITERATIONS:       60
 INTERPOLATION TYPE:            DIIS
 INTERPOLATION STEPS:              2 (START)      1 (STEP)
 LEVEL SHIFTS:                  0.00 (CLOSED)  0.00 (OPEN) 



 Orbital guess generated from atomic densities. Full valence occupancy:    1   0   0   0   1   0   0   0


 Molecular orbital dump at record        2100.2

 Initial alpha occupancy:   1   0   0   0   0
 Initial beta  occupancy:   1   0   0   0   0
 Wave function symmetry:    1

 ITERATION    DDIFF          GRAD             ENERGY        2-EL.EN.            DIPOLE MOMENTS         DIIS   ORB.
    1      0.000D+00      0.000D+00        -0.91625224      0.847318    0.00000    0.00000    0.00000    0    start
    2      0.000D+00      0.333D-02        -0.91627078      0.845883    0.00000    0.00000    0.00000    1    diag
    3      0.314D-02      0.528D-03        -0.91627126      0.845613    0.00000    0.00000    0.00000    2    diag
    4      0.593D-03      0.733D-07        -0.91627126      0.845613    0.00000    0.00000    0.00000    3    diag
    5      0.487D-07      0.299D-07        -0.91627126      0.845612    0.00000    0.00000    0.00000    0    orth

 Final occupancy:   1   0   0   0   0

 !RHF STATE 1.1 Energy                 -0.916271258898
 Nuclear energy                         0.26458860
 One-electron energy                   -1.60366611
 Two-electron energy                    0.42280625
 Virial quotient                       -1.29000458
 !RHF STATE 1.1 Dipole moment           0.00000000     0.00000000     0.00000000
 Dipole moment /Debye                   0.00000000     0.00000000     0.00000000

 Orbital energies:

         1.1          2.1
     -0.379027     1.005221

         1.5          2.5
     -0.023578     1.029019

 HOMO      1.1    -0.379027 =     -10.3138eV
 LUMO      1.5    -0.023578 =      -0.6416eV
 LUMO-HOMO         0.355449 =       9.6723eV


 **********************************************************************************************************************************
 DATASETS  * FILE   NREC   LENGTH (MB)   RECORD NAMES
              1      19        7.51       500      610      700      900      950      970     1000      129      960     1100   
                                          VAR    BASINP    GEOM    SYMINP    ZMAT    AOBASIS   BASIS     P2S    ABASIS      S 
                                         1400     1410     1200     1210     1080     1600     1650     1300     1700   
                                           T        V       H0       H01     AOSYM     SMH    MOLCAS    ERIS     OPER   

              2       4        2.76       700     1000      520     2100   
                                         GEOM     BASIS   MCVARS     RHF  

 PROGRAMS   *        TOTAL        HF       INT
 CPU TIMES  *         0.28      0.06      0.04
 REAL TIME  *         0.71 SEC
 DISK USED  *        12.28 MB      
 **********************************************************************************************************************************


 PROGRAM * OPT (Geometry optimization)     Authors: F. Eckert and H.-J. Werner


 BFGS update of hessian

 *** Long output written to logfile /home/thomas/aixrd/molpro2/h2_6-31g_freq.log ***


 Geometry optimization using default procedure for command HF-SCF

 Geometry written to block  1 of record 700

 Making model hessian for cartesian coordinates

 Quadratic Steepest Descent - Minimum Search

 ITER.   ENERGY(OLD)    ENERGY(NEW)      DE          GRADMAX     GRADNORM    GRADRMS     STEPMAX     STEPLEN     STEPRMS   CPU-time
   1    -0.91627126    -0.96851550    -0.05224424  0.10466638  0.10466638  0.10466638  0.45000050  0.45000050  0.31819841      0.15
   2    -0.96851550    -1.03061027    -0.06209477  0.12754200  0.12754200  0.12754200  0.44999949  0.44999949  0.31819769      0.31
   3    -1.03061027    -1.11494904    -0.08433877  0.14698320  0.14698320  0.14698320  0.60000038  0.60000038  0.42426434      0.48
   4    -1.11494904    -0.97958565     0.13536339  0.10385632  0.10385632  0.10385632  0.59999981  0.59999981  0.42426393      0.65
   5    -0.97958565    -1.11991539    -0.14032974  1.08860596  1.08860596  1.08860596  0.54774342  0.54774342  0.38731309      0.81
   6    -1.11991539    -1.12297535    -0.00305995  0.08539268  0.08539268  0.08539268  0.03984100  0.03984100  0.02817184      0.96
   7    -1.12297535    -1.12586067    -0.00288532  0.06762338  0.06762338  0.06762338  0.15162008  0.15162008  0.10721159      1.14
   8    -1.12586067    -1.12676602    -0.00090535  0.04309710  0.04309710  0.04309710  0.05901696  0.05901696  0.04173129      1.31
   9    -1.12676602    -1.12682706    -0.00006104  0.00988846  0.00988846  0.00988846  0.01101407  0.01101407  0.00778812      1.47
  10    -1.12682706    -1.12682782    -0.00000076  0.00111710  0.00111710  0.00111710  0.00140273  0.00140273  0.00099188      1.62
  11    -1.12682782    -1.12682783    -0.00000000  0.00003409  0.00003409  0.00003409  0.00004154  0.00004154  0.00002938      1.78

 END OF GEOMETRY OPTIMIZATION.

 Current geometry (xyz format, in Angstrom)

    2
 HF-SCF000/$BSET  ENERGY=-1.12682783
 H          0.0000000000        0.0000000000       -0.3649799142
 H          0.0000000000        0.0000000000        0.3649799142

 **********************************************************************************************************************************

 Geometry written to block  1 of record 700


 **********************************************************************************************************************************
 DATASETS  * FILE   NREC   LENGTH (MB)   RECORD NAMES
              1      19        7.51       500      610      700      900      950      970     1000      129      960     1100   
                                          VAR    BASINP    GEOM    SYMINP    ZMAT    AOBASIS   BASIS     P2S    ABASIS      S 
                                         1400     1410     1200     1210     1080     1600     1650     1300     1700   
                                           T        V       H0       H01     AOSYM     SMH    MOLCAS    ERIS     OPER   

              2       4        2.76       700     1000      520     2100   
                                         GEOM     BASIS   MCVARS     RHF  

 PROGRAMS   *        TOTAL      OPTG        HF       INT
 CPU TIMES  *         2.06      1.78      0.06      0.04
 REAL TIME  *         3.37 SEC
 DISK USED  *        14.80 MB      
 **********************************************************************************************************************************


 PROGRAM * HESSIAN

 Computing numerical hessian using default procedure for command HF-SCF

 Symmetry elements for unique displacements: X  Y  Z  

 Using no symmetry in wavefunction calculations

 Running default procedure: HF-SCF000


 Numerically approximating hessian using central gradient differences

 Task list generated. Total number of displacements:      4


 Numerical HF-SCF000 hessian completed. CPU-time:     0.91 sec, Elapsed:     0.91 sec

 HF-SCF hessian saved to record  5300.2

 FREQUENCIES * CALCULATION OF HARMONIC VIBRATIONAL SPECTRA FOR HF-SCF


 Permanent Dipole Moment [debye]
   1-  3    0.000000    0.000000    0.000000

 Dipole Moment Norm    0.0000000 [debye]

 Dipole Moment Derivatives [debye/ang]
                   1             2             3             4             5             6
         1    -0.0000000     0.0000000     0.0000000    -0.0000000     0.0000000    -0.0000000
         2     0.0000000    -0.0000000     0.0000000     0.0000000    -0.0000000    -0.0000000
         3     0.0000000     0.0000000    -0.0000000    -0.0000000    -0.0000000    -0.0000000

 Projecting out rotations and translations

   Low Vibration      Wavenumber
        Nr             [1/cm] 
        1                0.00
        2                0.00
        3                0.00
        4                0.00
        5                0.00

     Vibration        Wavenumber
        Nr             [1/cm] 
        1             4646.33

 FREQUENCIES * CALCULATION OF NORMAL MODES FOR HF-SCF


 Atomic Coordinates

  Nr  Atom  Charge       X              Y              Z

   1   H     1.00    0.000000000    0.000000000   -0.689712081
   2   H     1.00    0.000000000    0.000000000    0.689712081

 Frequencies dumped to record   5400.2

 Gradient norm at reference geometry: 0.34094D-04

 Normal Modes

                              1 Ag 
 Wavenumbers [cm-1]         4646.33
 Intensities [km/mol]          0.00
 Intensities [relative]        0.00
           GX1             -0.00000
           GY1             -0.00000
           GZ1              0.70432
           GX2             -0.00000
           GY2              0.00000
           GZ2             -0.70432


 Normal Modes of low/zero frequencies

                                  1           2           3           4           5
 Wavenumbers [cm-1]            0.00        0.00        0.00        0.00        0.00
 Intensities [km/mol]          0.00        0.00        0.00        0.00        0.00
 Intensities [relative]        0.00        0.00        0.00        0.00        0.00
           GX1             -0.00000     0.70432     0.00000     0.70432     0.00000
           GY1              0.70432     0.00000     0.70432    -0.00000     0.00000
           GZ1             -0.00000    -0.00000    -0.00000     0.00000     0.70432
           GX2              0.00000     0.70432     0.00000    -0.70432     0.00000
           GY2              0.70432     0.00000    -0.70432     0.00000     0.00000
           GZ2             -0.00000    -0.00000    -0.00000     0.00000     0.70432


 Zero point energy:  0.01058511 [H]     2323.16 [1/CM]       27.79 [KJ/MOL]
 Frequency information read from record  5400.2
 SETTING TITLE          =    ../input/h2_6-31G_freq.mld 

 Dump information in style MOLDEN to ../input/h2_6-31g_freq.mld                                                      

 Molecular orbitals read from record     2100.2  Type=RHF/CANONICAL (state 1.1)
 Occupation numbers read from record     2100.2  Type=RHF/RHF (state 1.1)
 Orbital energies read from record       2100.2  Type=RHF/CANONICAL (state 1.1)
 Redundancy group numbers read from rec  2100.2  Type=RHF/RHF (state 1.1)

 DUMP ORBITAL  1.1 AS ORBITAL    1  occ=    2.0000  eig=   -0.5989  GROUP=   2

 Total charge:       2.000000
 Frequency information read from record  5400.2

 **********************************************************************************************************************************

        OPTG(HF)        HF-SCF  
     -1.12682783     -0.91627126
 **********************************************************************************************************************************
 Variable memory released
